<?xml version="1.0" encoding="UTF-8"?>

<!-- generated on Mon Nov 12 14:33:53 2018 by Eclipse SUMO Version v1_0_1+0617-70ae16b
This data file and the accompanying materials
are made available under the terms of the Eclipse Public License v2.0
which accompanies this distribution, and is available at
http://www.eclipse.org/legal/epl-v20.html
SPDX-License-Identifier: EPL-2.0
<configuration xmlns:xsi="http://www.w3.org/2001/XMLSchema-instance" xsi:noNamespaceSchemaLocation="http://sumo.dlr.de/xsd/sumoConfiguration.xsd">

    <input>
        <net-file value="net.net.xml"/>
        <route-files value="input_routes.rou.xml"/>
    </input>

    <output>
        <write-license value="true"/>
        <fcd-output value="fcd.xml"/>
        <tripinfo-output value="tripinfos.xml"/>
    </output>

    <processing>
        <default.speeddev value="0"/>
    </processing>

    <report>
        <xml-validation value="never"/>
        <no-step-log value="true"/>
    </report>

</configuration>
-->

<fcd-export xmlns:xsi="http://www.w3.org/2001/XMLSchema-instance" xsi:noNamespaceSchemaLocation="http://sumo.dlr.de/xsd/fcd_file.xsd">
    <timestep time="0.00">
        <vehicle id="overtaking" x="0.00" y="-1.60" angle="90.00" type="DEFAULT_VEHTYPE" speed="0.00" pos="0.00" lane="VODUGES_beg_1" slope="0.00"/>
        <vehicle id="stopped" x="40.00" y="-1.60" angle="90.00" type="DEFAULT_VEHTYPE" speed="0.00" pos="40.00" lane="VODUGES_beg_1" slope="0.00"/>
    </timestep>
    <timestep time="1.00">
        <vehicle id="overtaking" x="1.91" y="-1.60" angle="90.00" type="DEFAULT_VEHTYPE" speed="1.91" pos="1.91" lane="VODUGES_beg_1" slope="0.00"/>
        <vehicle id="stopped" x="41.75" y="-1.60" angle="90.00" type="DEFAULT_VEHTYPE" speed="1.75" pos="41.75" lane="VODUGES_beg_1" slope="0.00"/>
    </timestep>
    <timestep time="2.00">
        <vehicle id="overtaking" x="5.40" y="-1.60" angle="90.00" type="DEFAULT_VEHTYPE" speed="3.49" pos="5.40" lane="VODUGES_beg_1" slope="0.00"/>
        <vehicle id="stopped" x="45.59" y="-1.60" angle="90.00" type="DEFAULT_VEHTYPE" speed="3.84" pos="45.59" lane="VODUGES_beg_1" slope="0.00"/>
    </timestep>
    <timestep time="3.00">
        <vehicle id="overtaking" x="10.97" y="-1.60" angle="90.00" type="DEFAULT_VEHTYPE" speed="5.58" pos="10.97" lane="VODUGES_beg_1" slope="0.00"/>
        <vehicle id="stopped" x="48.99" y="-1.60" angle="90.00" type="DEFAULT_VEHTYPE" speed="3.40" pos="48.99" lane="VODUGES_beg_1" slope="0.00"/>
    </timestep>
    <timestep time="4.00">
        <vehicle id="overtaking" x="18.64" y="-1.60" angle="90.00" type="DEFAULT_VEHTYPE" speed="7.66" pos="18.64" lane="VODUGES_beg_1" slope="0.00"/>
        <vehicle id="stopped" x="49.67" y="-1.60" angle="90.00" type="DEFAULT_VEHTYPE" speed="0.67" pos="49.67" lane="VODUGES_beg_1" slope="0.00"/>
    </timestep>
    <timestep time="5.00">
        <vehicle id="overtaking" x="28.27" y="-1.60" angle="90.00" type="DEFAULT_VEHTYPE" speed="9.63" pos="28.27" lane="VODUGES_beg_1" slope="0.00"/>
        <vehicle id="stopped" x="49.94" y="-1.60" angle="90.00" type="DEFAULT_VEHTYPE" speed="0.28" pos="49.94" lane="VODUGES_beg_1" slope="0.00"/>
    </timestep>
    <timestep time="6.00">
        <vehicle id="overtaking" x="36.87" y="1.60" angle="90.00" type="DEFAULT_VEHTYPE" speed="8.61" pos="163.13" lane="-VODUGES_beg_0" slope="0.00"/>
        <vehicle id="stopped" x="49.99" y="-1.60" angle="90.00" type="DEFAULT_VEHTYPE" speed="0.04" pos="49.99" lane="VODUGES_beg_1" slope="0.00"/>
    </timestep>
    <timestep time="7.00">
        <vehicle id="overtaking" x="46.92" y="1.60" angle="90.00" type="DEFAULT_VEHTYPE" speed="10.05" pos="153.08" lane="-VODUGES_beg_0" slope="0.00"/>
        <vehicle id="stopped" x="49.99" y="-1.60" angle="90.00" type="DEFAULT_VEHTYPE" speed="0.00" pos="49.99" lane="VODUGES_beg_1" slope="0.00"/>
    </timestep>
    <timestep time="8.00">
        <vehicle id="overtaking" x="58.65" y="1.60" angle="90.00" type="DEFAULT_VEHTYPE" speed="11.72" pos="141.35" lane="-VODUGES_beg_0" slope="0.00"/>
        <vehicle id="stopped" x="49.99" y="-1.60" angle="90.00" type="DEFAULT_VEHTYPE" speed="0.00" pos="49.99" lane="VODUGES_beg_1" slope="0.00"/>
    </timestep>
    <timestep time="9.00">
        <vehicle id="overtaking" x="72.48" y="-1.60" angle="90.00" type="DEFAULT_VEHTYPE" speed="13.83" pos="72.48" lane="VODUGES_beg_1" slope="0.00"/>
        <vehicle id="stopped" x="49.99" y="-1.60" angle="90.00" type="DEFAULT_VEHTYPE" speed="0.00" pos="49.99" lane="VODUGES_beg_1" slope="0.00"/>
    </timestep>
    <timestep time="10.00">
        <vehicle id="overtaking" x="85.09" y="-1.60" angle="90.00" type="DEFAULT_VEHTYPE" speed="12.62" pos="85.09" lane="VODUGES_beg_1" slope="0.00"/>
        <vehicle id="stopped" x="49.99" y="-1.60" angle="90.00" type="DEFAULT_VEHTYPE" speed="0.00" pos="49.99" lane="VODUGES_beg_1" slope="0.00"/>
    </timestep>
    <timestep time="11.00">
        <vehicle id="overtaking" x="98.51" y="-1.60" angle="90.00" type="DEFAULT_VEHTYPE" speed="13.42" pos="98.51" lane="VODUGES_beg_1" slope="0.00"/>
        <vehicle id="stopped" x="49.99" y="-1.60" angle="90.00" type="DEFAULT_VEHTYPE" speed="0.00" pos="49.99" lane="VODUGES_beg_1" slope="0.00"/>
    </timestep>
    <timestep time="12.00">
        <vehicle id="overtaking" x="112.28" y="-1.60" angle="90.00" type="DEFAULT_VEHTYPE" speed="13.77" pos="112.28" lane="VODUGES_beg_1" slope="0.00"/>
        <vehicle id="stopped" x="49.99" y="-1.60" angle="90.00" type="DEFAULT_VEHTYPE" speed="0.00" pos="49.99" lane="VODUGES_beg_1" slope="0.00"/>
    </timestep>
    <timestep time="13.00">
        <vehicle id="overtaking" x="125.33" y="-1.60" angle="90.00" type="DEFAULT_VEHTYPE" speed="13.05" pos="125.33" lane="VODUGES_beg_1" slope="0.00"/>
        <vehicle id="stopped" x="49.99" y="-1.60" angle="90.00" type="DEFAULT_VEHTYPE" speed="0.00" pos="49.99" lane="VODUGES_beg_1" slope="0.00"/>
    </timestep>
    <timestep time="14.00">
        <vehicle id="overtaking" x="139.14" y="-1.60" angle="90.00" type="DEFAULT_VEHTYPE" speed="13.81" pos="139.14" lane="VODUGES_beg_1" slope="0.00"/>
        <vehicle id="stopped" x="49.99" y="-1.60" angle="90.00" type="DEFAULT_VEHTYPE" speed="0.00" pos="49.99" lane="VODUGES_beg_1" slope="0.00"/>
    </timestep>
    <timestep time="15.00">
        <vehicle id="overtaking" x="153.03" y="-1.60" angle="90.00" type="DEFAULT_VEHTYPE" speed="13.89" pos="153.03" lane="VODUGES_beg_1" slope="0.00"/>
        <vehicle id="stopped" x="49.99" y="-1.60" angle="90.00" type="DEFAULT_VEHTYPE" speed="0.00" pos="49.99" lane="VODUGES_beg_1" slope="0.00"/>
    </timestep>
    <timestep time="16.00">
        <vehicle id="overtaking" x="166.86" y="-1.60" angle="90.00" type="DEFAULT_VEHTYPE" speed="13.83" pos="166.86" lane="VODUGES_beg_1" slope="0.00"/>
        <vehicle id="stopped" x="49.99" y="-1.60" angle="90.00" type="DEFAULT_VEHTYPE" speed="0.00" pos="49.99" lane="VODUGES_beg_1" slope="0.00"/>
    </timestep>
    <timestep time="17.00">
        <vehicle id="overtaking" x="179.74" y="-1.60" angle="90.00" type="DEFAULT_VEHTYPE" speed="12.89" pos="179.74" lane="VODUGES_beg_1" slope="0.00"/>
        <vehicle id="stopped" x="49.99" y="-1.60" angle="90.00" type="DEFAULT_VEHTYPE" speed="0.00" pos="49.99" lane="VODUGES_beg_1" slope="0.00"/>
    </timestep>
    <timestep time="18.00">
        <vehicle id="overtaking" x="192.40" y="-1.60" angle="90.00" type="DEFAULT_VEHTYPE" speed="12.66" pos="192.40" lane="VODUGES_beg_1" slope="0.00"/>
        <vehicle id="stopped" x="49.99" y="-1.60" angle="90.00" type="DEFAULT_VEHTYPE" speed="0.00" pos="49.99" lane="VODUGES_beg_1" slope="0.00"/>
    </timestep>
    <timestep time="19.00">
        <vehicle id="stopped" x="49.99" y="-1.60" angle="90.00" type="DEFAULT_VEHTYPE" speed="0.00" pos="49.99" lane="VODUGES_beg_1" slope="0.00"/>
    </timestep>
    <timestep time="20.00">
        <vehicle id="stopped" x="49.99" y="-1.60" angle="90.00" type="DEFAULT_VEHTYPE" speed="0.00" pos="49.99" lane="VODUGES_beg_1" slope="0.00"/>
    </timestep>
    <timestep time="21.00">
        <vehicle id="stopped" x="49.99" y="-1.60" angle="90.00" type="DEFAULT_VEHTYPE" speed="0.00" pos="49.99" lane="VODUGES_beg_1" slope="0.00"/>
    </timestep>
    <timestep time="22.00">
        <vehicle id="stopped" x="49.99" y="-1.60" angle="90.00" type="DEFAULT_VEHTYPE" speed="0.00" pos="49.99" lane="VODUGES_beg_1" slope="0.00"/>
    </timestep>
    <timestep time="23.00">
        <vehicle id="stopped" x="49.99" y="-1.60" angle="90.00" type="DEFAULT_VEHTYPE" speed="0.00" pos="49.99" lane="VODUGES_beg_1" slope="0.00"/>
    </timestep>
    <timestep time="24.00">
        <vehicle id="stopped" x="49.99" y="-1.60" angle="90.00" type="DEFAULT_VEHTYPE" speed="0.00" pos="49.99" lane="VODUGES_beg_1" slope="0.00"/>
    </timestep>
    <timestep time="25.00">
        <vehicle id="stopped" x="49.99" y="-1.60" angle="90.00" type="DEFAULT_VEHTYPE" speed="0.00" pos="49.99" lane="VODUGES_beg_1" slope="0.00"/>
    </timestep>
    <timestep time="26.00">
        <vehicle id="stopped" x="49.99" y="-1.60" angle="90.00" type="DEFAULT_VEHTYPE" speed="0.00" pos="49.99" lane="VODUGES_beg_1" slope="0.00"/>
    </timestep>
    <timestep time="27.00">
        <vehicle id="stopped" x="49.99" y="-1.60" angle="90.00" type="DEFAULT_VEHTYPE" speed="0.00" pos="49.99" lane="VODUGES_beg_1" slope="0.00"/>
    </timestep>
    <timestep time="28.00">
        <vehicle id="stopped" x="49.99" y="-1.60" angle="90.00" type="DEFAULT_VEHTYPE" speed="0.00" pos="49.99" lane="VODUGES_beg_1" slope="0.00"/>
    </timestep>
    <timestep time="29.00">
        <vehicle id="stopped" x="49.99" y="-1.60" angle="90.00" type="DEFAULT_VEHTYPE" speed="0.00" pos="49.99" lane="VODUGES_beg_1" slope="0.00"/>
    </timestep>
    <timestep time="30.00">
        <vehicle id="stopped" x="49.99" y="-1.60" angle="90.00" type="DEFAULT_VEHTYPE" speed="0.00" pos="49.99" lane="VODUGES_beg_1" slope="0.00"/>
    </timestep>
    <timestep time="31.00">
        <vehicle id="stopped" x="49.99" y="-1.60" angle="90.00" type="DEFAULT_VEHTYPE" speed="0.00" pos="49.99" lane="VODUGES_beg_1" slope="0.00"/>
    </timestep>
    <timestep time="32.00">
        <vehicle id="stopped" x="49.99" y="-1.60" angle="90.00" type="DEFAULT_VEHTYPE" speed="0.00" pos="49.99" lane="VODUGES_beg_1" slope="0.00"/>
    </timestep>
    <timestep time="33.00">
        <vehicle id="stopped" x="49.99" y="-1.60" angle="90.00" type="DEFAULT_VEHTYPE" speed="0.00" pos="49.99" lane="VODUGES_beg_1" slope="0.00"/>
    </timestep>
    <timestep time="34.00">
        <vehicle id="stopped" x="49.99" y="-1.60" angle="90.00" type="DEFAULT_VEHTYPE" speed="0.00" pos="49.99" lane="VODUGES_beg_1" slope="0.00"/>
    </timestep>
    <timestep time="35.00">
        <vehicle id="stopped" x="49.99" y="-1.60" angle="90.00" type="DEFAULT_VEHTYPE" speed="0.00" pos="49.99" lane="VODUGES_beg_1" slope="0.00"/>
    </timestep>
    <timestep time="36.00">
        <vehicle id="stopped" x="49.99" y="-1.60" angle="90.00" type="DEFAULT_VEHTYPE" speed="0.00" pos="49.99" lane="VODUGES_beg_1" slope="0.00"/>
    </timestep>
    <timestep time="37.00">
        <vehicle id="stopped" x="49.99" y="-1.60" angle="90.00" type="DEFAULT_VEHTYPE" speed="0.00" pos="49.99" lane="VODUGES_beg_1" slope="0.00"/>
    </timestep>
    <timestep time="38.00">
        <vehicle id="stopped" x="49.99" y="-1.60" angle="90.00" type="DEFAULT_VEHTYPE" speed="0.00" pos="49.99" lane="VODUGES_beg_1" slope="0.00"/>
    </timestep>
    <timestep time="39.00">
        <vehicle id="stopped" x="49.99" y="-1.60" angle="90.00" type="DEFAULT_VEHTYPE" speed="0.00" pos="49.99" lane="VODUGES_beg_1" slope="0.00"/>
    </timestep>
    <timestep time="40.00">
        <vehicle id="stopped" x="49.99" y="-1.60" angle="90.00" type="DEFAULT_VEHTYPE" speed="0.00" pos="49.99" lane="VODUGES_beg_1" slope="0.00"/>
    </timestep>
    <timestep time="41.00">
        <vehicle id="stopped" x="49.99" y="-1.60" angle="90.00" type="DEFAULT_VEHTYPE" speed="0.00" pos="49.99" lane="VODUGES_beg_1" slope="0.00"/>
    </timestep>
    <timestep time="42.00">
        <vehicle id="stopped" x="49.99" y="-1.60" angle="90.00" type="DEFAULT_VEHTYPE" speed="0.00" pos="49.99" lane="VODUGES_beg_1" slope="0.00"/>
    </timestep>
    <timestep time="43.00">
        <vehicle id="stopped" x="49.99" y="-1.60" angle="90.00" type="DEFAULT_VEHTYPE" speed="0.00" pos="49.99" lane="VODUGES_beg_1" slope="0.00"/>
    </timestep>
    <timestep time="44.00">
        <vehicle id="stopped" x="49.99" y="-1.60" angle="90.00" type="DEFAULT_VEHTYPE" speed="0.00" pos="49.99" lane="VODUGES_beg_1" slope="0.00"/>
    </timestep>
    <timestep time="45.00">
        <vehicle id="stopped" x="49.99" y="-1.60" angle="90.00" type="DEFAULT_VEHTYPE" speed="0.00" pos="49.99" lane="VODUGES_beg_1" slope="0.00"/>
    </timestep>
    <timestep time="46.00">
        <vehicle id="stopped" x="49.99" y="-1.60" angle="90.00" type="DEFAULT_VEHTYPE" speed="0.00" pos="49.99" lane="VODUGES_beg_1" slope="0.00"/>
    </timestep>
    <timestep time="47.00">
        <vehicle id="stopped" x="49.99" y="-1.60" angle="90.00" type="DEFAULT_VEHTYPE" speed="0.00" pos="49.99" lane="VODUGES_beg_1" slope="0.00"/>
    </timestep>
    <timestep time="48.00">
        <vehicle id="stopped" x="49.99" y="-1.60" angle="90.00" type="DEFAULT_VEHTYPE" speed="0.00" pos="49.99" lane="VODUGES_beg_1" slope="0.00"/>
    </timestep>
    <timestep time="49.00">
        <vehicle id="stopped" x="49.99" y="-1.60" angle="90.00" type="DEFAULT_VEHTYPE" speed="0.00" pos="49.99" lane="VODUGES_beg_1" slope="0.00"/>
    </timestep>
    <timestep time="50.00">
        <vehicle id="stopped" x="49.99" y="-1.60" angle="90.00" type="DEFAULT_VEHTYPE" speed="0.00" pos="49.99" lane="VODUGES_beg_1" slope="0.00"/>
    </timestep>
    <timestep time="51.00">
        <vehicle id="stopped" x="49.99" y="-1.60" angle="90.00" type="DEFAULT_VEHTYPE" speed="0.00" pos="49.99" lane="VODUGES_beg_1" slope="0.00"/>
    </timestep>
    <timestep time="52.00">
        <vehicle id="stopped" x="49.99" y="-1.60" angle="90.00" type="DEFAULT_VEHTYPE" speed="0.00" pos="49.99" lane="VODUGES_beg_1" slope="0.00"/>
    </timestep>
    <timestep time="53.00">
        <vehicle id="stopped" x="49.99" y="-1.60" angle="90.00" type="DEFAULT_VEHTYPE" speed="0.00" pos="49.99" lane="VODUGES_beg_1" slope="0.00"/>
    </timestep>
    <timestep time="54.00">
        <vehicle id="stopped" x="49.99" y="-1.60" angle="90.00" type="DEFAULT_VEHTYPE" speed="0.00" pos="49.99" lane="VODUGES_beg_1" slope="0.00"/>
    </timestep>
    <timestep time="55.00">
        <vehicle id="stopped" x="49.99" y="-1.60" angle="90.00" type="DEFAULT_VEHTYPE" speed="0.00" pos="49.99" lane="VODUGES_beg_1" slope="0.00"/>
    </timestep>
    <timestep time="56.00">
        <vehicle id="stopped" x="49.99" y="-1.60" angle="90.00" type="DEFAULT_VEHTYPE" speed="0.00" pos="49.99" lane="VODUGES_beg_1" slope="0.00"/>
    </timestep>
    <timestep time="57.00">
        <vehicle id="stopped" x="49.99" y="-1.60" angle="90.00" type="DEFAULT_VEHTYPE" speed="0.00" pos="49.99" lane="VODUGES_beg_1" slope="0.00"/>
    </timestep>
    <timestep time="58.00">
        <vehicle id="stopped" x="49.99" y="-1.60" angle="90.00" type="DEFAULT_VEHTYPE" speed="0.00" pos="49.99" lane="VODUGES_beg_1" slope="0.00"/>
    </timestep>
    <timestep time="59.00">
        <vehicle id="stopped" x="49.99" y="-1.60" angle="90.00" type="DEFAULT_VEHTYPE" speed="0.00" pos="49.99" lane="VODUGES_beg_1" slope="0.00"/>
    </timestep>
    <timestep time="60.00">
        <vehicle id="stopped" x="49.99" y="-1.60" angle="90.00" type="DEFAULT_VEHTYPE" speed="0.00" pos="49.99" lane="VODUGES_beg_1" slope="0.00"/>
    </timestep>
    <timestep time="61.00">
        <vehicle id="stopped" x="49.99" y="-1.60" angle="90.00" type="DEFAULT_VEHTYPE" speed="0.00" pos="49.99" lane="VODUGES_beg_1" slope="0.00"/>
    </timestep>
    <timestep time="62.00">
        <vehicle id="stopped" x="49.99" y="-1.60" angle="90.00" type="DEFAULT_VEHTYPE" speed="0.00" pos="49.99" lane="VODUGES_beg_1" slope="0.00"/>
    </timestep>
    <timestep time="63.00">
        <vehicle id="stopped" x="49.99" y="-1.60" angle="90.00" type="DEFAULT_VEHTYPE" speed="0.00" pos="49.99" lane="VODUGES_beg_1" slope="0.00"/>
    </timestep>
    <timestep time="64.00">
        <vehicle id="stopped" x="49.99" y="-1.60" angle="90.00" type="DEFAULT_VEHTYPE" speed="0.00" pos="49.99" lane="VODUGES_beg_1" slope="0.00"/>
    </timestep>
    <timestep time="65.00">
        <vehicle id="stopped" x="49.99" y="-1.60" angle="90.00" type="DEFAULT_VEHTYPE" speed="0.00" pos="49.99" lane="VODUGES_beg_1" slope="0.00"/>
    </timestep>
    <timestep time="66.00">
        <vehicle id="stopped" x="49.99" y="-1.60" angle="90.00" type="DEFAULT_VEHTYPE" speed="0.00" pos="49.99" lane="VODUGES_beg_1" slope="0.00"/>
    </timestep>
    <timestep time="67.00">
        <vehicle id="stopped" x="49.99" y="-1.60" angle="90.00" type="DEFAULT_VEHTYPE" speed="0.00" pos="49.99" lane="VODUGES_beg_1" slope="0.00"/>
    </timestep>
    <timestep time="68.00">
        <vehicle id="stopped" x="49.99" y="-1.60" angle="90.00" type="DEFAULT_VEHTYPE" speed="0.00" pos="49.99" lane="VODUGES_beg_1" slope="0.00"/>
    </timestep>
    <timestep time="69.00">
        <vehicle id="stopped" x="49.99" y="-1.60" angle="90.00" type="DEFAULT_VEHTYPE" speed="0.00" pos="49.99" lane="VODUGES_beg_1" slope="0.00"/>
    </timestep>
    <timestep time="70.00">
        <vehicle id="stopped" x="49.99" y="-1.60" angle="90.00" type="DEFAULT_VEHTYPE" speed="0.00" pos="49.99" lane="VODUGES_beg_1" slope="0.00"/>
    </timestep>
    <timestep time="71.00">
        <vehicle id="stopped" x="49.99" y="-1.60" angle="90.00" type="DEFAULT_VEHTYPE" speed="0.00" pos="49.99" lane="VODUGES_beg_1" slope="0.00"/>
    </timestep>
    <timestep time="72.00">
        <vehicle id="stopped" x="49.99" y="-1.60" angle="90.00" type="DEFAULT_VEHTYPE" speed="0.00" pos="49.99" lane="VODUGES_beg_1" slope="0.00"/>
    </timestep>
    <timestep time="73.00">
        <vehicle id="stopped" x="49.99" y="-1.60" angle="90.00" type="DEFAULT_VEHTYPE" speed="0.00" pos="49.99" lane="VODUGES_beg_1" slope="0.00"/>
    </timestep>
    <timestep time="74.00">
        <vehicle id="stopped" x="49.99" y="-1.60" angle="90.00" type="DEFAULT_VEHTYPE" speed="0.00" pos="49.99" lane="VODUGES_beg_1" slope="0.00"/>
    </timestep>
    <timestep time="75.00">
        <vehicle id="stopped" x="49.99" y="-1.60" angle="90.00" type="DEFAULT_VEHTYPE" speed="0.00" pos="49.99" lane="VODUGES_beg_1" slope="0.00"/>
    </timestep>
    <timestep time="76.00">
        <vehicle id="stopped" x="49.99" y="-1.60" angle="90.00" type="DEFAULT_VEHTYPE" speed="0.00" pos="49.99" lane="VODUGES_beg_1" slope="0.00"/>
    </timestep>
    <timestep time="77.00">
        <vehicle id="stopped" x="49.99" y="-1.60" angle="90.00" type="DEFAULT_VEHTYPE" speed="0.00" pos="49.99" lane="VODUGES_beg_1" slope="0.00"/>
    </timestep>
    <timestep time="78.00">
        <vehicle id="stopped" x="49.99" y="-1.60" angle="90.00" type="DEFAULT_VEHTYPE" speed="0.00" pos="49.99" lane="VODUGES_beg_1" slope="0.00"/>
    </timestep>
    <timestep time="79.00">
        <vehicle id="stopped" x="49.99" y="-1.60" angle="90.00" type="DEFAULT_VEHTYPE" speed="0.00" pos="49.99" lane="VODUGES_beg_1" slope="0.00"/>
    </timestep>
    <timestep time="80.00">
        <vehicle id="stopped" x="49.99" y="-1.60" angle="90.00" type="DEFAULT_VEHTYPE" speed="0.00" pos="49.99" lane="VODUGES_beg_1" slope="0.00"/>
    </timestep>
    <timestep time="81.00">
        <vehicle id="stopped" x="49.99" y="-1.60" angle="90.00" type="DEFAULT_VEHTYPE" speed="0.00" pos="49.99" lane="VODUGES_beg_1" slope="0.00"/>
    </timestep>
    <timestep time="82.00">
        <vehicle id="stopped" x="49.99" y="-1.60" angle="90.00" type="DEFAULT_VEHTYPE" speed="0.00" pos="49.99" lane="VODUGES_beg_1" slope="0.00"/>
    </timestep>
    <timestep time="83.00">
        <vehicle id="stopped" x="49.99" y="-1.60" angle="90.00" type="DEFAULT_VEHTYPE" speed="0.00" pos="49.99" lane="VODUGES_beg_1" slope="0.00"/>
    </timestep>
    <timestep time="84.00">
        <vehicle id="stopped" x="49.99" y="-1.60" angle="90.00" type="DEFAULT_VEHTYPE" speed="0.00" pos="49.99" lane="VODUGES_beg_1" slope="0.00"/>
    </timestep>
    <timestep time="85.00">
        <vehicle id="stopped" x="49.99" y="-1.60" angle="90.00" type="DEFAULT_VEHTYPE" speed="0.00" pos="49.99" lane="VODUGES_beg_1" slope="0.00"/>
    </timestep>
    <timestep time="86.00">
        <vehicle id="stopped" x="49.99" y="-1.60" angle="90.00" type="DEFAULT_VEHTYPE" speed="0.00" pos="49.99" lane="VODUGES_beg_1" slope="0.00"/>
    </timestep>
    <timestep time="87.00">
        <vehicle id="stopped" x="49.99" y="-1.60" angle="90.00" type="DEFAULT_VEHTYPE" speed="0.00" pos="49.99" lane="VODUGES_beg_1" slope="0.00"/>
    </timestep>
    <timestep time="88.00">
        <vehicle id="stopped" x="49.99" y="-1.60" angle="90.00" type="DEFAULT_VEHTYPE" speed="0.00" pos="49.99" lane="VODUGES_beg_1" slope="0.00"/>
    </timestep>
    <timestep time="89.00">
        <vehicle id="stopped" x="49.99" y="-1.60" angle="90.00" type="DEFAULT_VEHTYPE" speed="0.00" pos="49.99" lane="VODUGES_beg_1" slope="0.00"/>
    </timestep>
    <timestep time="90.00">
        <vehicle id="stopped" x="49.99" y="-1.60" angle="90.00" type="DEFAULT_VEHTYPE" speed="0.00" pos="49.99" lane="VODUGES_beg_1" slope="0.00"/>
    </timestep>
    <timestep time="91.00">
        <vehicle id="stopped" x="49.99" y="-1.60" angle="90.00" type="DEFAULT_VEHTYPE" speed="0.00" pos="49.99" lane="VODUGES_beg_1" slope="0.00"/>
    </timestep>
    <timestep time="92.00">
        <vehicle id="stopped" x="49.99" y="-1.60" angle="90.00" type="DEFAULT_VEHTYPE" speed="0.00" pos="49.99" lane="VODUGES_beg_1" slope="0.00"/>
    </timestep>
    <timestep time="93.00">
        <vehicle id="stopped" x="49.99" y="-1.60" angle="90.00" type="DEFAULT_VEHTYPE" speed="0.00" pos="49.99" lane="VODUGES_beg_1" slope="0.00"/>
    </timestep>
    <timestep time="94.00">
        <vehicle id="stopped" x="49.99" y="-1.60" angle="90.00" type="DEFAULT_VEHTYPE" speed="0.00" pos="49.99" lane="VODUGES_beg_1" slope="0.00"/>
    </timestep>
    <timestep time="95.00">
        <vehicle id="stopped" x="49.99" y="-1.60" angle="90.00" type="DEFAULT_VEHTYPE" speed="0.00" pos="49.99" lane="VODUGES_beg_1" slope="0.00"/>
    </timestep>
    <timestep time="96.00">
        <vehicle id="stopped" x="49.99" y="-1.60" angle="90.00" type="DEFAULT_VEHTYPE" speed="0.00" pos="49.99" lane="VODUGES_beg_1" slope="0.00"/>
    </timestep>
    <timestep time="97.00">
        <vehicle id="stopped" x="49.99" y="-1.60" angle="90.00" type="DEFAULT_VEHTYPE" speed="0.00" pos="49.99" lane="VODUGES_beg_1" slope="0.00"/>
    </timestep>
    <timestep time="98.00">
        <vehicle id="stopped" x="49.99" y="-1.60" angle="90.00" type="DEFAULT_VEHTYPE" speed="0.00" pos="49.99" lane="VODUGES_beg_1" slope="0.00"/>
    </timestep>
    <timestep time="99.00">
        <vehicle id="stopped" x="49.99" y="-1.60" angle="90.00" type="DEFAULT_VEHTYPE" speed="0.00" pos="49.99" lane="VODUGES_beg_1" slope="0.00"/>
    </timestep>
    <timestep time="100.00">
        <vehicle id="stopped" x="49.99" y="-1.60" angle="90.00" type="DEFAULT_VEHTYPE" speed="0.00" pos="49.99" lane="VODUGES_beg_1" slope="0.00"/>
    </timestep>
    <timestep time="101.00">
        <vehicle id="stopped" x="49.99" y="-1.60" angle="90.00" type="DEFAULT_VEHTYPE" speed="0.00" pos="49.99" lane="VODUGES_beg_1" slope="0.00"/>
    </timestep>
    <timestep time="102.00">
        <vehicle id="stopped" x="49.99" y="-1.60" angle="90.00" type="DEFAULT_VEHTYPE" speed="0.00" pos="49.99" lane="VODUGES_beg_1" slope="0.00"/>
    </timestep>
    <timestep time="103.00">
        <vehicle id="stopped" x="49.99" y="-1.60" angle="90.00" type="DEFAULT_VEHTYPE" speed="0.00" pos="49.99" lane="VODUGES_beg_1" slope="0.00"/>
    </timestep>
    <timestep time="104.00">
        <vehicle id="stopped" x="49.99" y="-1.60" angle="90.00" type="DEFAULT_VEHTYPE" speed="0.00" pos="49.99" lane="VODUGES_beg_1" slope="0.00"/>
    </timestep>
    <timestep time="105.00">
        <vehicle id="stopped" x="49.99" y="-1.60" angle="90.00" type="DEFAULT_VEHTYPE" speed="0.00" pos="49.99" lane="VODUGES_beg_1" slope="0.00"/>
    </timestep>
    <timestep time="106.00">
        <vehicle id="stopped" x="49.99" y="-1.60" angle="90.00" type="DEFAULT_VEHTYPE" speed="0.00" pos="49.99" lane="VODUGES_beg_1" slope="0.00"/>
    </timestep>
    <timestep time="107.00">
        <vehicle id="stopped" x="52.17" y="-1.60" angle="90.00" type="DEFAULT_VEHTYPE" speed="2.19" pos="52.17" lane="VODUGES_beg_1" slope="0.00"/>
    </timestep>
    <timestep time="108.00">
        <vehicle id="stopped" x="56.31" y="-1.60" angle="90.00" type="DEFAULT_VEHTYPE" speed="4.14" pos="56.31" lane="VODUGES_beg_1" slope="0.00"/>
    </timestep>
    <timestep time="109.00">
        <vehicle id="stopped" x="62.13" y="-1.60" angle="90.00" type="DEFAULT_VEHTYPE" speed="5.82" pos="62.13" lane="VODUGES_beg_1" slope="0.00"/>
    </timestep>
    <timestep time="110.00">
        <vehicle id="stopped" x="70.20" y="-1.60" angle="90.00" type="DEFAULT_VEHTYPE" speed="8.07" pos="70.20" lane="VODUGES_beg_1" slope="0.00"/>
    </timestep>
    <timestep time="111.00">
        <vehicle id="stopped" x="80.45" y="-1.60" angle="90.00" type="DEFAULT_VEHTYPE" speed="10.25" pos="80.45" lane="VODUGES_beg_1" slope="0.00"/>
    </timestep>
    <timestep time="112.00">
        <vehicle id="stopped" x="92.12" y="-1.60" angle="90.00" type="DEFAULT_VEHTYPE" speed="11.67" pos="92.12" lane="VODUGES_beg_1" slope="0.00"/>
    </timestep>
    <timestep time="113.00">
        <vehicle id="stopped" x="105.26" y="-1.60" angle="90.00" type="DEFAULT_VEHTYPE" speed="13.14" pos="105.26" lane="VODUGES_beg_1" slope="0.00"/>
    </timestep>
    <timestep time="114.00">
        <vehicle id="stopped" x="118.97" y="-1.60" angle="90.00" type="DEFAULT_VEHTYPE" speed="13.70" pos="118.97" lane="VODUGES_beg_1" slope="0.00"/>
    </timestep>
    <timestep time="115.00">
        <vehicle id="stopped" x="132.56" y="-1.60" angle="90.00" type="DEFAULT_VEHTYPE" speed="13.59" pos="132.56" lane="VODUGES_beg_1" slope="0.00"/>
    </timestep>
    <timestep time="116.00">
        <vehicle id="stopped" x="145.20" y="-1.60" angle="90.00" type="DEFAULT_VEHTYPE" speed="12.64" pos="145.20" lane="VODUGES_beg_1" slope="0.00"/>
    </timestep>
    <timestep time="117.00">
        <vehicle id="stopped" x="158.01" y="-1.60" angle="90.00" type="DEFAULT_VEHTYPE" speed="12.82" pos="158.01" lane="VODUGES_beg_1" slope="0.00"/>
    </timestep>
    <timestep time="118.00">
        <vehicle id="stopped" x="171.21" y="-1.60" angle="90.00" type="DEFAULT_VEHTYPE" speed="13.20" pos="171.21" lane="VODUGES_beg_1" slope="0.00"/>
    </timestep>
    <timestep time="119.00">
        <vehicle id="stopped" x="185.03" y="-1.60" angle="90.00" type="DEFAULT_VEHTYPE" speed="13.82" pos="185.03" lane="VODUGES_beg_1" slope="0.00"/>
    </timestep>
    <timestep time="120.00">
        <vehicle id="stopped" x="198.81" y="-1.60" angle="90.00" type="DEFAULT_VEHTYPE" speed="13.78" pos="198.81" lane="VODUGES_beg_1" slope="0.00"/>
    </timestep>
    <timestep time="121.00"/>
</fcd-export>
