<?xml version="1.0" encoding="UTF-8"?>

<!-- generated on Mon Nov 12 14:33:54 2018 by Eclipse SUMO Version v1_0_1+0617-70ae16b
This data file and the accompanying materials
are made available under the terms of the Eclipse Public License v2.0
which accompanies this distribution, and is available at
http://www.eclipse.org/legal/epl-v20.html
SPDX-License-Identifier: EPL-2.0
<configuration xmlns:xsi="http://www.w3.org/2001/XMLSchema-instance" xsi:noNamespaceSchemaLocation="http://sumo.dlr.de/xsd/sumoConfiguration.xsd">

    <input>
        <net-file value="net2.net.xml"/>
        <route-files value="input_routes.rou.xml"/>
    </input>

    <output>
        <write-license value="true"/>
        <fcd-output value="fcd.xml"/>
        <tripinfo-output value="tripinfos.xml"/>
    </output>

    <time>
        <step-length value="0.2"/>
    </time>

    <processing>
        <default.speeddev value="0"/>
    </processing>

    <report>
        <xml-validation value="never"/>
        <no-step-log value="true"/>
    </report>

    <gui_only>
        <tracker-interval value="0.2"/>
    </gui_only>

</configuration>
-->

<fcd-export xmlns:xsi="http://www.w3.org/2001/XMLSchema-instance" xsi:noNamespaceSchemaLocation="http://sumo.dlr.de/xsd/fcd_file.xsd">
    <timestep time="0.00">
        <vehicle id="overtaking" x="0.00" y="-1.60" angle="90.00" type="DEFAULT_VEHTYPE" speed="0.00" pos="0.00" lane="VODUGES_beg_0" slope="0.00"/>
        <vehicle id="stopped" x="40.00" y="-1.60" angle="90.00" type="DEFAULT_VEHTYPE" speed="0.00" pos="40.00" lane="VODUGES_beg_0" slope="0.00"/>
    </timestep>
    <timestep time="0.20">
        <vehicle id="overtaking" x="0.10" y="-1.60" angle="90.00" type="DEFAULT_VEHTYPE" speed="0.50" pos="0.10" lane="VODUGES_beg_0" slope="0.00"/>
        <vehicle id="stopped" x="40.10" y="-1.60" angle="90.00" type="DEFAULT_VEHTYPE" speed="0.50" pos="40.10" lane="VODUGES_beg_0" slope="0.00"/>
    </timestep>
    <timestep time="0.40">
        <vehicle id="overtaking" x="0.30" y="-1.60" angle="90.00" type="DEFAULT_VEHTYPE" speed="0.98" pos="0.30" lane="VODUGES_beg_0" slope="0.00"/>
        <vehicle id="stopped" x="40.31" y="-1.60" angle="90.00" type="DEFAULT_VEHTYPE" speed="1.02" pos="40.31" lane="VODUGES_beg_0" slope="0.00"/>
    </timestep>
    <timestep time="0.60">
        <vehicle id="overtaking" x="0.59" y="-1.60" angle="90.00" type="DEFAULT_VEHTYPE" speed="1.47" pos="0.59" lane="VODUGES_beg_0" slope="0.00"/>
        <vehicle id="stopped" x="40.60" y="-1.60" angle="90.00" type="DEFAULT_VEHTYPE" speed="1.46" pos="40.60" lane="VODUGES_beg_0" slope="0.00"/>
    </timestep>
    <timestep time="0.80">
        <vehicle id="overtaking" x="0.96" y="-1.60" angle="90.00" type="DEFAULT_VEHTYPE" speed="1.86" pos="0.96" lane="VODUGES_beg_0" slope="0.00"/>
        <vehicle id="stopped" x="40.96" y="-1.60" angle="90.00" type="DEFAULT_VEHTYPE" speed="1.82" pos="40.96" lane="VODUGES_beg_0" slope="0.00"/>
    </timestep>
    <timestep time="1.00">
        <vehicle id="overtaking" x="1.44" y="-1.60" angle="90.00" type="DEFAULT_VEHTYPE" speed="2.38" pos="1.44" lane="VODUGES_beg_0" slope="0.00"/>
        <vehicle id="stopped" x="41.41" y="-1.60" angle="90.00" type="DEFAULT_VEHTYPE" speed="2.25" pos="41.41" lane="VODUGES_beg_0" slope="0.00"/>
    </timestep>
    <timestep time="1.20">
        <vehicle id="overtaking" x="1.98" y="-1.60" angle="90.00" type="DEFAULT_VEHTYPE" speed="2.72" pos="1.98" lane="VODUGES_beg_0" slope="0.00"/>
        <vehicle id="stopped" x="41.92" y="-1.60" angle="90.00" type="DEFAULT_VEHTYPE" speed="2.52" pos="41.92" lane="VODUGES_beg_0" slope="0.00"/>
    </timestep>
    <timestep time="1.40">
        <vehicle id="overtaking" x="2.58" y="-1.60" angle="90.00" type="DEFAULT_VEHTYPE" speed="3.00" pos="2.58" lane="VODUGES_beg_0" slope="0.00"/>
        <vehicle id="stopped" x="42.39" y="-1.60" angle="90.00" type="DEFAULT_VEHTYPE" speed="2.38" pos="42.39" lane="VODUGES_beg_0" slope="0.00"/>
    </timestep>
    <timestep time="1.60">
        <vehicle id="overtaking" x="3.27" y="-1.60" angle="90.00" type="DEFAULT_VEHTYPE" speed="3.46" pos="3.27" lane="VODUGES_beg_0" slope="0.00"/>
        <vehicle id="stopped" x="42.82" y="-1.60" angle="90.00" type="DEFAULT_VEHTYPE" speed="2.13" pos="42.82" lane="VODUGES_beg_0" slope="0.00"/>
    </timestep>
    <timestep time="1.80">
        <vehicle id="overtaking" x="4.07" y="-1.60" angle="90.00" type="DEFAULT_VEHTYPE" speed="3.96" pos="4.07" lane="VODUGES_beg_0" slope="0.00"/>
        <vehicle id="stopped" x="43.18" y="-1.60" angle="90.00" type="DEFAULT_VEHTYPE" speed="1.78" pos="43.18" lane="VODUGES_beg_0" slope="0.00"/>
    </timestep>
    <timestep time="2.00">
        <vehicle id="overtaking" x="4.92" y="-1.60" angle="90.00" type="DEFAULT_VEHTYPE" speed="4.26" pos="4.92" lane="VODUGES_beg_0" slope="0.00"/>
        <vehicle id="stopped" x="43.49" y="-1.60" angle="90.00" type="DEFAULT_VEHTYPE" speed="1.59" pos="43.49" lane="VODUGES_beg_0" slope="0.00"/>
    </timestep>
    <timestep time="2.20">
        <vehicle id="overtaking" x="5.86" y="-1.60" angle="90.00" type="DEFAULT_VEHTYPE" speed="4.73" pos="5.86" lane="VODUGES_beg_0" slope="0.00"/>
        <vehicle id="stopped" x="43.76" y="-1.60" angle="90.00" type="DEFAULT_VEHTYPE" speed="1.35" pos="43.76" lane="VODUGES_beg_0" slope="0.00"/>
    </timestep>
    <timestep time="2.40">
        <vehicle id="overtaking" x="6.89" y="-1.60" angle="90.00" type="DEFAULT_VEHTYPE" speed="5.15" pos="6.89" lane="VODUGES_beg_0" slope="0.00"/>
        <vehicle id="stopped" x="43.98" y="-1.60" angle="90.00" type="DEFAULT_VEHTYPE" speed="1.08" pos="43.98" lane="VODUGES_beg_0" slope="0.00"/>
    </timestep>
    <timestep time="2.60">
        <vehicle id="overtaking" x="8.01" y="-1.60" angle="90.00" type="DEFAULT_VEHTYPE" speed="5.59" pos="8.01" lane="VODUGES_beg_0" slope="0.00"/>
        <vehicle id="stopped" x="44.17" y="-1.60" angle="90.00" type="DEFAULT_VEHTYPE" speed="0.97" pos="44.17" lane="VODUGES_beg_0" slope="0.00"/>
    </timestep>
    <timestep time="2.80">
        <vehicle id="overtaking" x="9.21" y="-1.60" angle="90.00" type="DEFAULT_VEHTYPE" speed="5.98" pos="9.21" lane="VODUGES_beg_0" slope="0.00"/>
        <vehicle id="stopped" x="44.34" y="-1.60" angle="90.00" type="DEFAULT_VEHTYPE" speed="0.84" pos="44.34" lane="VODUGES_beg_0" slope="0.00"/>
    </timestep>
    <timestep time="3.00">
        <vehicle id="overtaking" x="10.46" y="-1.60" angle="90.00" type="DEFAULT_VEHTYPE" speed="6.26" pos="10.46" lane="VODUGES_beg_0" slope="0.00"/>
        <vehicle id="stopped" x="44.51" y="-1.60" angle="90.00" type="DEFAULT_VEHTYPE" speed="0.87" pos="44.51" lane="VODUGES_beg_0" slope="0.00"/>
    </timestep>
    <timestep time="3.20">
        <vehicle id="overtaking" x="11.81" y="-1.60" angle="90.00" type="DEFAULT_VEHTYPE" speed="6.73" pos="11.81" lane="VODUGES_beg_0" slope="0.00"/>
        <vehicle id="stopped" x="44.69" y="-1.60" angle="90.00" type="DEFAULT_VEHTYPE" speed="0.89" pos="44.69" lane="VODUGES_beg_0" slope="0.00"/>
    </timestep>
    <timestep time="3.40">
        <vehicle id="overtaking" x="13.22" y="-1.60" angle="90.00" type="DEFAULT_VEHTYPE" speed="7.07" pos="13.22" lane="VODUGES_beg_0" slope="0.00"/>
        <vehicle id="stopped" x="44.87" y="-1.60" angle="90.00" type="DEFAULT_VEHTYPE" speed="0.89" pos="44.87" lane="VODUGES_beg_0" slope="0.00"/>
    </timestep>
    <timestep time="3.60">
        <vehicle id="overtaking" x="14.72" y="-1.60" angle="90.00" type="DEFAULT_VEHTYPE" speed="7.46" pos="14.72" lane="VODUGES_beg_0" slope="0.00"/>
        <vehicle id="stopped" x="44.99" y="-1.60" angle="90.00" type="DEFAULT_VEHTYPE" speed="0.61" pos="44.99" lane="VODUGES_beg_0" slope="0.00"/>
    </timestep>
    <timestep time="3.80">
        <vehicle id="overtaking" x="16.31" y="1.60" angle="90.00" type="DEFAULT_VEHTYPE" speed="7.98" pos="28.99" lane="-VODUGES_beg_0" slope="0.00"/>
        <vehicle id="stopped" x="45.00" y="-1.60" angle="90.00" type="DEFAULT_VEHTYPE" speed="0.04" pos="45.00" lane="VODUGES_beg_0" slope="0.00"/>
    </timestep>
    <timestep time="4.00">
        <vehicle id="overtaking" x="17.97" y="1.60" angle="90.00" type="DEFAULT_VEHTYPE" speed="8.26" pos="27.33" lane="-VODUGES_beg_0" slope="0.00"/>
        <vehicle id="stopped" x="45.00" y="-1.60" angle="90.00" type="DEFAULT_VEHTYPE" speed="0.00" pos="45.00" lane="VODUGES_beg_0" slope="0.00"/>
    </timestep>
    <timestep time="4.20">
        <vehicle id="overtaking" x="19.70" y="1.60" angle="90.00" type="DEFAULT_VEHTYPE" speed="8.67" pos="25.60" lane="-VODUGES_beg_0" slope="0.00"/>
        <vehicle id="stopped" x="45.00" y="-1.60" angle="90.00" type="DEFAULT_VEHTYPE" speed="0.00" pos="45.00" lane="VODUGES_beg_0" slope="0.00"/>
    </timestep>
    <timestep time="4.40">
        <vehicle id="overtaking" x="21.50" y="1.60" angle="90.00" type="DEFAULT_VEHTYPE" speed="9.00" pos="23.80" lane="-VODUGES_beg_0" slope="0.00"/>
        <vehicle id="stopped" x="45.00" y="-1.60" angle="90.00" type="DEFAULT_VEHTYPE" speed="0.00" pos="45.00" lane="VODUGES_beg_0" slope="0.00"/>
    </timestep>
    <timestep time="4.60">
        <vehicle id="overtaking" x="23.39" y="1.60" angle="90.00" type="DEFAULT_VEHTYPE" speed="9.43" pos="21.91" lane="-VODUGES_beg_0" slope="0.00"/>
        <vehicle id="stopped" x="45.00" y="-1.60" angle="90.00" type="DEFAULT_VEHTYPE" speed="0.00" pos="45.00" lane="VODUGES_beg_0" slope="0.00"/>
    </timestep>
    <timestep time="4.80">
        <vehicle id="overtaking" x="25.37" y="1.60" angle="90.00" type="DEFAULT_VEHTYPE" speed="9.91" pos="19.93" lane="-VODUGES_beg_0" slope="0.00"/>
        <vehicle id="stopped" x="45.00" y="-1.60" angle="90.00" type="DEFAULT_VEHTYPE" speed="0.00" pos="45.00" lane="VODUGES_beg_0" slope="0.00"/>
    </timestep>
    <timestep time="5.00">
        <vehicle id="overtaking" x="27.42" y="1.60" angle="90.00" type="DEFAULT_VEHTYPE" speed="10.25" pos="17.88" lane="-VODUGES_beg_0" slope="0.00"/>
        <vehicle id="stopped" x="45.00" y="-1.60" angle="90.00" type="DEFAULT_VEHTYPE" speed="0.00" pos="45.00" lane="VODUGES_beg_0" slope="0.00"/>
    </timestep>
    <timestep time="5.20">
        <vehicle id="overtaking" x="29.52" y="1.60" angle="90.00" type="DEFAULT_VEHTYPE" speed="10.53" pos="15.78" lane="-VODUGES_beg_0" slope="0.00"/>
        <vehicle id="stopped" x="45.00" y="-1.60" angle="90.00" type="DEFAULT_VEHTYPE" speed="0.00" pos="45.00" lane="VODUGES_beg_0" slope="0.00"/>
    </timestep>
    <timestep time="5.40">
        <vehicle id="overtaking" x="31.73" y="1.60" angle="90.00" type="DEFAULT_VEHTYPE" speed="11.03" pos="13.57" lane="-VODUGES_beg_0" slope="0.00"/>
        <vehicle id="stopped" x="45.00" y="-1.60" angle="90.00" type="DEFAULT_VEHTYPE" speed="0.00" pos="45.00" lane="VODUGES_beg_0" slope="0.00"/>
    </timestep>
    <timestep time="5.60">
        <vehicle id="overtaking" x="34.04" y="1.60" angle="90.00" type="DEFAULT_VEHTYPE" speed="11.54" pos="11.26" lane="-VODUGES_beg_0" slope="0.00"/>
        <vehicle id="stopped" x="45.00" y="-1.60" angle="90.00" type="DEFAULT_VEHTYPE" speed="0.00" pos="45.00" lane="VODUGES_beg_0" slope="0.00"/>
    </timestep>
    <timestep time="5.80">
        <vehicle id="overtaking" x="36.44" y="1.60" angle="90.00" type="DEFAULT_VEHTYPE" speed="11.99" pos="8.86" lane="-VODUGES_beg_0" slope="0.00"/>
        <vehicle id="stopped" x="45.00" y="-1.60" angle="90.00" type="DEFAULT_VEHTYPE" speed="0.00" pos="45.00" lane="VODUGES_beg_0" slope="0.00"/>
    </timestep>
    <timestep time="6.00">
        <vehicle id="overtaking" x="38.92" y="1.60" angle="90.00" type="DEFAULT_VEHTYPE" speed="12.44" pos="6.38" lane="-VODUGES_beg_0" slope="0.00"/>
        <vehicle id="stopped" x="45.00" y="-1.60" angle="90.00" type="DEFAULT_VEHTYPE" speed="0.00" pos="45.00" lane="VODUGES_beg_0" slope="0.00"/>
    </timestep>
    <timestep time="6.20">
        <vehicle id="overtaking" x="41.49" y="1.60" angle="90.00" type="DEFAULT_VEHTYPE" speed="12.84" pos="3.81" lane="-VODUGES_beg_0" slope="0.00"/>
        <vehicle id="stopped" x="45.00" y="-1.60" angle="90.00" type="DEFAULT_VEHTYPE" speed="0.00" pos="45.00" lane="VODUGES_beg_0" slope="0.00"/>
    </timestep>
    <timestep time="6.40">
        <vehicle id="overtaking" x="44.13" y="1.60" angle="90.00" type="DEFAULT_VEHTYPE" speed="13.18" pos="1.17" lane="-VODUGES_beg_0" slope="0.00"/>
        <vehicle id="stopped" x="45.00" y="-1.60" angle="90.00" type="DEFAULT_VEHTYPE" speed="0.00" pos="45.00" lane="VODUGES_beg_0" slope="0.00"/>
    </timestep>
    <timestep time="6.60">
        <vehicle id="overtaking" x="46.85" y="1.60" angle="90.00" type="DEFAULT_VEHTYPE" speed="13.61" pos="7.85" lane=":C_3_0" slope="0.00"/>
        <vehicle id="stopped" x="45.00" y="-1.60" angle="90.00" type="DEFAULT_VEHTYPE" speed="0.00" pos="45.00" lane="VODUGES_beg_0" slope="0.00"/>
    </timestep>
    <timestep time="6.80">
        <vehicle id="overtaking" x="49.62" y="1.60" angle="90.00" type="DEFAULT_VEHTYPE" speed="13.86" pos="5.08" lane=":C_3_0" slope="0.00"/>
        <vehicle id="stopped" x="45.00" y="-1.60" angle="90.00" type="DEFAULT_VEHTYPE" speed="0.00" pos="45.00" lane="VODUGES_beg_0" slope="0.00"/>
    </timestep>
    <timestep time="7.00">
        <vehicle id="overtaking" x="52.38" y="1.60" angle="90.00" type="DEFAULT_VEHTYPE" speed="13.77" pos="2.32" lane=":C_3_0" slope="0.00"/>
        <vehicle id="stopped" x="45.00" y="-1.60" angle="90.00" type="DEFAULT_VEHTYPE" speed="0.00" pos="45.00" lane="VODUGES_beg_0" slope="0.00"/>
    </timestep>
    <timestep time="7.20">
        <vehicle id="overtaking" x="55.15" y="-1.60" angle="90.00" type="DEFAULT_VEHTYPE" speed="13.88" pos="0.45" lane="VODUGES_end_0" slope="0.00"/>
        <vehicle id="stopped" x="45.00" y="-1.60" angle="90.00" type="DEFAULT_VEHTYPE" speed="0.00" pos="45.00" lane="VODUGES_beg_0" slope="0.00"/>
    </timestep>
    <timestep time="7.40">
        <vehicle id="overtaking" x="57.88" y="-1.60" angle="90.00" type="DEFAULT_VEHTYPE" speed="13.65" pos="3.18" lane="VODUGES_end_0" slope="0.00"/>
        <vehicle id="stopped" x="45.00" y="-1.60" angle="90.00" type="DEFAULT_VEHTYPE" speed="0.00" pos="45.00" lane="VODUGES_beg_0" slope="0.00"/>
    </timestep>
    <timestep time="7.60">
        <vehicle id="overtaking" x="60.66" y="-1.60" angle="90.00" type="DEFAULT_VEHTYPE" speed="13.87" pos="5.96" lane="VODUGES_end_0" slope="0.00"/>
        <vehicle id="stopped" x="45.00" y="-1.60" angle="90.00" type="DEFAULT_VEHTYPE" speed="0.00" pos="45.00" lane="VODUGES_beg_0" slope="0.00"/>
    </timestep>
    <timestep time="7.80">
        <vehicle id="overtaking" x="63.42" y="-1.60" angle="90.00" type="DEFAULT_VEHTYPE" speed="13.84" pos="8.72" lane="VODUGES_end_0" slope="0.00"/>
        <vehicle id="stopped" x="45.00" y="-1.60" angle="90.00" type="DEFAULT_VEHTYPE" speed="0.00" pos="45.00" lane="VODUGES_beg_0" slope="0.00"/>
    </timestep>
    <timestep time="8.00">
        <vehicle id="overtaking" x="66.19" y="-1.60" angle="90.00" type="DEFAULT_VEHTYPE" speed="13.81" pos="11.49" lane="VODUGES_end_0" slope="0.00"/>
        <vehicle id="stopped" x="45.00" y="-1.60" angle="90.00" type="DEFAULT_VEHTYPE" speed="0.00" pos="45.00" lane="VODUGES_beg_0" slope="0.00"/>
    </timestep>
    <timestep time="8.20">
        <vehicle id="overtaking" x="68.92" y="-1.60" angle="90.00" type="DEFAULT_VEHTYPE" speed="13.64" pos="14.22" lane="VODUGES_end_0" slope="0.00"/>
        <vehicle id="stopped" x="45.00" y="-1.60" angle="90.00" type="DEFAULT_VEHTYPE" speed="0.00" pos="45.00" lane="VODUGES_beg_0" slope="0.00"/>
    </timestep>
    <timestep time="8.40">
        <vehicle id="overtaking" x="71.68" y="-1.60" angle="90.00" type="DEFAULT_VEHTYPE" speed="13.84" pos="16.98" lane="VODUGES_end_0" slope="0.00"/>
        <vehicle id="stopped" x="45.00" y="-1.60" angle="90.00" type="DEFAULT_VEHTYPE" speed="0.00" pos="45.00" lane="VODUGES_beg_0" slope="0.00"/>
    </timestep>
    <timestep time="8.60">
        <vehicle id="overtaking" x="74.43" y="-1.60" angle="90.00" type="DEFAULT_VEHTYPE" speed="13.71" pos="19.73" lane="VODUGES_end_0" slope="0.00"/>
        <vehicle id="stopped" x="45.00" y="-1.60" angle="90.00" type="DEFAULT_VEHTYPE" speed="0.00" pos="45.00" lane="VODUGES_beg_0" slope="0.00"/>
    </timestep>
    <timestep time="8.80">
        <vehicle id="overtaking" x="77.18" y="-1.60" angle="90.00" type="DEFAULT_VEHTYPE" speed="13.77" pos="22.48" lane="VODUGES_end_0" slope="0.00"/>
        <vehicle id="stopped" x="45.00" y="-1.60" angle="90.00" type="DEFAULT_VEHTYPE" speed="0.00" pos="45.00" lane="VODUGES_beg_0" slope="0.00"/>
    </timestep>
    <timestep time="9.00">
        <vehicle id="overtaking" x="79.92" y="-1.60" angle="90.00" type="DEFAULT_VEHTYPE" speed="13.72" pos="25.22" lane="VODUGES_end_0" slope="0.00"/>
        <vehicle id="stopped" x="45.00" y="-1.60" angle="90.00" type="DEFAULT_VEHTYPE" speed="0.00" pos="45.00" lane="VODUGES_beg_0" slope="0.00"/>
    </timestep>
    <timestep time="9.20">
        <vehicle id="overtaking" x="82.70" y="-1.60" angle="90.00" type="DEFAULT_VEHTYPE" speed="13.88" pos="28.00" lane="VODUGES_end_0" slope="0.00"/>
        <vehicle id="stopped" x="45.00" y="-1.60" angle="90.00" type="DEFAULT_VEHTYPE" speed="0.00" pos="45.00" lane="VODUGES_beg_0" slope="0.00"/>
    </timestep>
    <timestep time="9.40">
        <vehicle id="overtaking" x="85.46" y="-1.60" angle="90.00" type="DEFAULT_VEHTYPE" speed="13.81" pos="30.76" lane="VODUGES_end_0" slope="0.00"/>
        <vehicle id="stopped" x="45.00" y="-1.60" angle="90.00" type="DEFAULT_VEHTYPE" speed="0.00" pos="45.00" lane="VODUGES_beg_0" slope="0.00"/>
    </timestep>
    <timestep time="9.60">
        <vehicle id="overtaking" x="88.21" y="-1.60" angle="90.00" type="DEFAULT_VEHTYPE" speed="13.75" pos="33.51" lane="VODUGES_end_0" slope="0.00"/>
        <vehicle id="stopped" x="45.00" y="-1.60" angle="90.00" type="DEFAULT_VEHTYPE" speed="0.00" pos="45.00" lane="VODUGES_beg_0" slope="0.00"/>
    </timestep>
    <timestep time="9.80">
        <vehicle id="overtaking" x="90.95" y="-1.60" angle="90.00" type="DEFAULT_VEHTYPE" speed="13.71" pos="36.25" lane="VODUGES_end_0" slope="0.00"/>
        <vehicle id="stopped" x="45.00" y="-1.60" angle="90.00" type="DEFAULT_VEHTYPE" speed="0.00" pos="45.00" lane="VODUGES_beg_0" slope="0.00"/>
    </timestep>
    <timestep time="10.00">
        <vehicle id="overtaking" x="93.72" y="-1.60" angle="90.00" type="DEFAULT_VEHTYPE" speed="13.84" pos="39.02" lane="VODUGES_end_0" slope="0.00"/>
        <vehicle id="stopped" x="45.00" y="-1.60" angle="90.00" type="DEFAULT_VEHTYPE" speed="0.00" pos="45.00" lane="VODUGES_beg_0" slope="0.00"/>
    </timestep>
    <timestep time="10.20">
        <vehicle id="overtaking" x="96.48" y="-1.60" angle="90.00" type="DEFAULT_VEHTYPE" speed="13.81" pos="41.78" lane="VODUGES_end_0" slope="0.00"/>
        <vehicle id="stopped" x="45.00" y="-1.60" angle="90.00" type="DEFAULT_VEHTYPE" speed="0.00" pos="45.00" lane="VODUGES_beg_0" slope="0.00"/>
    </timestep>
    <timestep time="10.40">
        <vehicle id="overtaking" x="99.25" y="-1.60" angle="90.00" type="DEFAULT_VEHTYPE" speed="13.81" pos="44.55" lane="VODUGES_end_0" slope="0.00"/>
        <vehicle id="stopped" x="45.00" y="-1.60" angle="90.00" type="DEFAULT_VEHTYPE" speed="0.00" pos="45.00" lane="VODUGES_beg_0" slope="0.00"/>
    </timestep>
    <timestep time="10.60">
        <vehicle id="overtaking" x="102.02" y="-1.60" angle="90.00" type="DEFAULT_VEHTYPE" speed="13.87" pos="47.32" lane="VODUGES_end_0" slope="0.00"/>
        <vehicle id="stopped" x="45.00" y="-1.60" angle="90.00" type="DEFAULT_VEHTYPE" speed="0.00" pos="45.00" lane="VODUGES_beg_0" slope="0.00"/>
    </timestep>
    <timestep time="10.80">
        <vehicle id="overtaking" x="104.75" y="-1.60" angle="90.00" type="DEFAULT_VEHTYPE" speed="13.64" pos="50.05" lane="VODUGES_end_0" slope="0.00"/>
        <vehicle id="stopped" x="45.00" y="-1.60" angle="90.00" type="DEFAULT_VEHTYPE" speed="0.00" pos="45.00" lane="VODUGES_beg_0" slope="0.00"/>
    </timestep>
    <timestep time="11.00">
        <vehicle id="overtaking" x="107.52" y="-1.60" angle="90.00" type="DEFAULT_VEHTYPE" speed="13.89" pos="52.82" lane="VODUGES_end_0" slope="0.00"/>
        <vehicle id="stopped" x="45.00" y="-1.60" angle="90.00" type="DEFAULT_VEHTYPE" speed="0.00" pos="45.00" lane="VODUGES_beg_0" slope="0.00"/>
    </timestep>
    <timestep time="11.20">
        <vehicle id="overtaking" x="110.25" y="-1.60" angle="90.00" type="DEFAULT_VEHTYPE" speed="13.64" pos="55.55" lane="VODUGES_end_0" slope="0.00"/>
        <vehicle id="stopped" x="45.00" y="-1.60" angle="90.00" type="DEFAULT_VEHTYPE" speed="0.00" pos="45.00" lane="VODUGES_beg_0" slope="0.00"/>
    </timestep>
    <timestep time="11.40">
        <vehicle id="overtaking" x="113.00" y="-1.60" angle="90.00" type="DEFAULT_VEHTYPE" speed="13.72" pos="58.30" lane="VODUGES_end_0" slope="0.00"/>
        <vehicle id="stopped" x="45.00" y="-1.60" angle="90.00" type="DEFAULT_VEHTYPE" speed="0.00" pos="45.00" lane="VODUGES_beg_0" slope="0.00"/>
    </timestep>
    <timestep time="11.60">
        <vehicle id="overtaking" x="115.75" y="-1.60" angle="90.00" type="DEFAULT_VEHTYPE" speed="13.78" pos="61.05" lane="VODUGES_end_0" slope="0.00"/>
        <vehicle id="stopped" x="45.00" y="-1.60" angle="90.00" type="DEFAULT_VEHTYPE" speed="0.00" pos="45.00" lane="VODUGES_beg_0" slope="0.00"/>
    </timestep>
    <timestep time="11.80">
        <vehicle id="overtaking" x="118.48" y="-1.60" angle="90.00" type="DEFAULT_VEHTYPE" speed="13.66" pos="63.78" lane="VODUGES_end_0" slope="0.00"/>
        <vehicle id="stopped" x="45.00" y="-1.60" angle="90.00" type="DEFAULT_VEHTYPE" speed="0.00" pos="45.00" lane="VODUGES_beg_0" slope="0.00"/>
    </timestep>
    <timestep time="12.00">
        <vehicle id="overtaking" x="121.23" y="-1.60" angle="90.00" type="DEFAULT_VEHTYPE" speed="13.73" pos="66.53" lane="VODUGES_end_0" slope="0.00"/>
        <vehicle id="stopped" x="45.00" y="-1.60" angle="90.00" type="DEFAULT_VEHTYPE" speed="0.00" pos="45.00" lane="VODUGES_beg_0" slope="0.00"/>
    </timestep>
    <timestep time="12.20">
        <vehicle id="overtaking" x="124.00" y="-1.60" angle="90.00" type="DEFAULT_VEHTYPE" speed="13.87" pos="69.30" lane="VODUGES_end_0" slope="0.00"/>
        <vehicle id="stopped" x="45.00" y="-1.60" angle="90.00" type="DEFAULT_VEHTYPE" speed="0.00" pos="45.00" lane="VODUGES_beg_0" slope="0.00"/>
    </timestep>
    <timestep time="12.40">
        <vehicle id="overtaking" x="126.74" y="-1.60" angle="90.00" type="DEFAULT_VEHTYPE" speed="13.69" pos="72.04" lane="VODUGES_end_0" slope="0.00"/>
        <vehicle id="stopped" x="45.00" y="-1.60" angle="90.00" type="DEFAULT_VEHTYPE" speed="0.00" pos="45.00" lane="VODUGES_beg_0" slope="0.00"/>
    </timestep>
    <timestep time="12.60">
        <vehicle id="overtaking" x="129.49" y="-1.60" angle="90.00" type="DEFAULT_VEHTYPE" speed="13.73" pos="74.79" lane="VODUGES_end_0" slope="0.00"/>
        <vehicle id="stopped" x="45.00" y="-1.60" angle="90.00" type="DEFAULT_VEHTYPE" speed="0.00" pos="45.00" lane="VODUGES_beg_0" slope="0.00"/>
    </timestep>
    <timestep time="12.80">
        <vehicle id="overtaking" x="132.25" y="-1.60" angle="90.00" type="DEFAULT_VEHTYPE" speed="13.83" pos="77.55" lane="VODUGES_end_0" slope="0.00"/>
        <vehicle id="stopped" x="45.00" y="-1.60" angle="90.00" type="DEFAULT_VEHTYPE" speed="0.00" pos="45.00" lane="VODUGES_beg_0" slope="0.00"/>
    </timestep>
    <timestep time="13.00">
        <vehicle id="overtaking" x="135.01" y="-1.60" angle="90.00" type="DEFAULT_VEHTYPE" speed="13.80" pos="80.31" lane="VODUGES_end_0" slope="0.00"/>
        <vehicle id="stopped" x="45.00" y="-1.60" angle="90.00" type="DEFAULT_VEHTYPE" speed="0.00" pos="45.00" lane="VODUGES_beg_0" slope="0.00"/>
    </timestep>
    <timestep time="13.20">
        <vehicle id="overtaking" x="137.79" y="-1.60" angle="90.00" type="DEFAULT_VEHTYPE" speed="13.88" pos="83.09" lane="VODUGES_end_0" slope="0.00"/>
        <vehicle id="stopped" x="45.00" y="-1.60" angle="90.00" type="DEFAULT_VEHTYPE" speed="0.00" pos="45.00" lane="VODUGES_beg_0" slope="0.00"/>
    </timestep>
    <timestep time="13.40">
        <vehicle id="overtaking" x="140.55" y="-1.60" angle="90.00" type="DEFAULT_VEHTYPE" speed="13.81" pos="85.85" lane="VODUGES_end_0" slope="0.00"/>
        <vehicle id="stopped" x="45.00" y="-1.60" angle="90.00" type="DEFAULT_VEHTYPE" speed="0.00" pos="45.00" lane="VODUGES_beg_0" slope="0.00"/>
    </timestep>
    <timestep time="13.60">
        <vehicle id="overtaking" x="143.30" y="-1.60" angle="90.00" type="DEFAULT_VEHTYPE" speed="13.74" pos="88.60" lane="VODUGES_end_0" slope="0.00"/>
        <vehicle id="stopped" x="45.00" y="-1.60" angle="90.00" type="DEFAULT_VEHTYPE" speed="0.00" pos="45.00" lane="VODUGES_beg_0" slope="0.00"/>
    </timestep>
    <timestep time="13.80">
        <vehicle id="overtaking" x="146.04" y="-1.60" angle="90.00" type="DEFAULT_VEHTYPE" speed="13.70" pos="91.34" lane="VODUGES_end_0" slope="0.00"/>
        <vehicle id="stopped" x="45.00" y="-1.60" angle="90.00" type="DEFAULT_VEHTYPE" speed="0.00" pos="45.00" lane="VODUGES_beg_0" slope="0.00"/>
    </timestep>
    <timestep time="14.00">
        <vehicle id="overtaking" x="148.77" y="-1.60" angle="90.00" type="DEFAULT_VEHTYPE" speed="13.66" pos="94.07" lane="VODUGES_end_0" slope="0.00"/>
        <vehicle id="stopped" x="45.00" y="-1.60" angle="90.00" type="DEFAULT_VEHTYPE" speed="0.00" pos="45.00" lane="VODUGES_beg_0" slope="0.00"/>
    </timestep>
    <timestep time="14.20">
        <vehicle id="overtaking" x="151.52" y="-1.60" angle="90.00" type="DEFAULT_VEHTYPE" speed="13.74" pos="96.82" lane="VODUGES_end_0" slope="0.00"/>
        <vehicle id="stopped" x="45.00" y="-1.60" angle="90.00" type="DEFAULT_VEHTYPE" speed="0.00" pos="45.00" lane="VODUGES_beg_0" slope="0.00"/>
    </timestep>
    <timestep time="14.40">
        <vehicle id="overtaking" x="154.26" y="-1.60" angle="90.00" type="DEFAULT_VEHTYPE" speed="13.71" pos="99.56" lane="VODUGES_end_0" slope="0.00"/>
        <vehicle id="stopped" x="45.00" y="-1.60" angle="90.00" type="DEFAULT_VEHTYPE" speed="0.00" pos="45.00" lane="VODUGES_beg_0" slope="0.00"/>
    </timestep>
    <timestep time="14.60">
        <vehicle id="overtaking" x="157.02" y="-1.60" angle="90.00" type="DEFAULT_VEHTYPE" speed="13.82" pos="102.32" lane="VODUGES_end_0" slope="0.00"/>
        <vehicle id="stopped" x="45.00" y="-1.60" angle="90.00" type="DEFAULT_VEHTYPE" speed="0.00" pos="45.00" lane="VODUGES_beg_0" slope="0.00"/>
    </timestep>
    <timestep time="14.80">
        <vehicle id="overtaking" x="159.78" y="-1.60" angle="90.00" type="DEFAULT_VEHTYPE" speed="13.78" pos="105.08" lane="VODUGES_end_0" slope="0.00"/>
        <vehicle id="stopped" x="45.00" y="-1.60" angle="90.00" type="DEFAULT_VEHTYPE" speed="0.00" pos="45.00" lane="VODUGES_beg_0" slope="0.00"/>
    </timestep>
    <timestep time="15.00">
        <vehicle id="overtaking" x="162.53" y="-1.60" angle="90.00" type="DEFAULT_VEHTYPE" speed="13.74" pos="107.83" lane="VODUGES_end_0" slope="0.00"/>
        <vehicle id="stopped" x="45.00" y="-1.60" angle="90.00" type="DEFAULT_VEHTYPE" speed="0.00" pos="45.00" lane="VODUGES_beg_0" slope="0.00"/>
    </timestep>
    <timestep time="15.20">
        <vehicle id="overtaking" x="165.26" y="-1.60" angle="90.00" type="DEFAULT_VEHTYPE" speed="13.67" pos="110.56" lane="VODUGES_end_0" slope="0.00"/>
        <vehicle id="stopped" x="45.00" y="-1.60" angle="90.00" type="DEFAULT_VEHTYPE" speed="0.00" pos="45.00" lane="VODUGES_beg_0" slope="0.00"/>
    </timestep>
    <timestep time="15.40">
        <vehicle id="overtaking" x="167.99" y="-1.60" angle="90.00" type="DEFAULT_VEHTYPE" speed="13.66" pos="113.29" lane="VODUGES_end_0" slope="0.00"/>
        <vehicle id="stopped" x="45.00" y="-1.60" angle="90.00" type="DEFAULT_VEHTYPE" speed="0.00" pos="45.00" lane="VODUGES_beg_0" slope="0.00"/>
    </timestep>
    <timestep time="15.60">
        <vehicle id="overtaking" x="170.74" y="-1.60" angle="90.00" type="DEFAULT_VEHTYPE" speed="13.75" pos="116.04" lane="VODUGES_end_0" slope="0.00"/>
        <vehicle id="stopped" x="45.00" y="-1.60" angle="90.00" type="DEFAULT_VEHTYPE" speed="0.00" pos="45.00" lane="VODUGES_beg_0" slope="0.00"/>
    </timestep>
    <timestep time="15.80">
        <vehicle id="overtaking" x="173.52" y="-1.60" angle="90.00" type="DEFAULT_VEHTYPE" speed="13.89" pos="118.82" lane="VODUGES_end_0" slope="0.00"/>
        <vehicle id="stopped" x="45.00" y="-1.60" angle="90.00" type="DEFAULT_VEHTYPE" speed="0.00" pos="45.00" lane="VODUGES_beg_0" slope="0.00"/>
    </timestep>
    <timestep time="16.00">
        <vehicle id="overtaking" x="176.29" y="-1.60" angle="90.00" type="DEFAULT_VEHTYPE" speed="13.84" pos="121.59" lane="VODUGES_end_0" slope="0.00"/>
        <vehicle id="stopped" x="45.00" y="-1.60" angle="90.00" type="DEFAULT_VEHTYPE" speed="0.00" pos="45.00" lane="VODUGES_beg_0" slope="0.00"/>
    </timestep>
    <timestep time="16.20">
        <vehicle id="overtaking" x="179.06" y="-1.60" angle="90.00" type="DEFAULT_VEHTYPE" speed="13.84" pos="124.36" lane="VODUGES_end_0" slope="0.00"/>
        <vehicle id="stopped" x="45.00" y="-1.60" angle="90.00" type="DEFAULT_VEHTYPE" speed="0.00" pos="45.00" lane="VODUGES_beg_0" slope="0.00"/>
    </timestep>
    <timestep time="16.40">
        <vehicle id="overtaking" x="181.81" y="-1.60" angle="90.00" type="DEFAULT_VEHTYPE" speed="13.74" pos="127.11" lane="VODUGES_end_0" slope="0.00"/>
        <vehicle id="stopped" x="45.00" y="-1.60" angle="90.00" type="DEFAULT_VEHTYPE" speed="0.00" pos="45.00" lane="VODUGES_beg_0" slope="0.00"/>
    </timestep>
    <timestep time="16.60">
        <vehicle id="overtaking" x="184.58" y="-1.60" angle="90.00" type="DEFAULT_VEHTYPE" speed="13.87" pos="129.88" lane="VODUGES_end_0" slope="0.00"/>