<?xml version="1.0" encoding="UTF-8"?>

<!-- generated on Mon Nov 12 14:33:54 2018 by Eclipse SUMO Version v1_0_1+0617-70ae16b
This data file and the accompanying materials
are made available under the terms of the Eclipse Public License v2.0
which accompanies this distribution, and is available at
http://www.eclipse.org/legal/epl-v20.html
SPDX-License-Identifier: EPL-2.0
<configuration xmlns:xsi="http://www.w3.org/2001/XMLSchema-instance" xsi:noNamespaceSchemaLocation="http://sumo.dlr.de/xsd/sumoConfiguration.xsd">

    <input>
        <net-file value="net.net.xml"/>
        <route-files value="input_routes.rou.xml"/>
    </input>

    <output>
        <write-license value="true"/>
        <fcd-output value="fcd.xml"/>
        <tripinfo-output value="tripinfos.xml"/>
    </output>

    <processing>
        <default.speeddev value="0"/>
    </processing>

    <report>
        <xml-validation value="never"/>
        <no-step-log value="true"/>
    </report>

</configuration>
-->

<fcd-export xmlns:xsi="http://www.w3.org/2001/XMLSchema-instance" xsi:noNamespaceSchemaLocation="http://sumo.dlr.de/xsd/fcd_file.xsd">
    <timestep time="0.00">
        <vehicle id="oncoming1" x="100.00" y="1.65" angle="270.00" type="DEFAULT_VEHTYPE" speed="0.00" pos="100.00" lane="-VODUGES_beg_0" slope="0.00"/>
        <vehicle id="oncoming2" x="200.00" y="1.65" angle="270.00" type="DEFAULT_VEHTYPE" speed="0.00" pos="0.00" lane="-VODUGES_beg_0" slope="0.00"/>
        <vehicle id="overtaking" x="0.00" y="-1.65" angle="90.00" type="DEFAULT_VEHTYPE" speed="0.00" pos="0.00" lane="VODUGES_beg_0" slope="0.00"/>
        <vehicle id="slow" x="40.00" y="-1.65" angle="90.00" type="slow" speed="0.00" pos="40.00" lane="VODUGES_beg_0" slope="0.00"/>
    </timestep>
    <timestep time="1.00">
        <vehicle id="oncoming1" x="98.56" y="1.65" angle="270.00" type="DEFAULT_VEHTYPE" speed="1.44" pos="101.44" lane="-VODUGES_beg_0" slope="0.00"/>
        <vehicle id="oncoming2" x="198.33" y="1.65" angle="270.00" type="DEFAULT_VEHTYPE" speed="1.67" pos="1.67" lane="-VODUGES_beg_0" slope="0.00"/>
        <vehicle id="overtaking" x="2.20" y="-1.65" angle="90.00" type="DEFAULT_VEHTYPE" speed="2.20" pos="2.20" lane="VODUGES_beg_0" slope="0.00"/>
        <vehicle id="slow" x="41.00" y="-1.65" angle="90.00" type="slow" speed="1.00" pos="41.00" lane="VODUGES_beg_0" slope="0.00"/>
    </timestep>
    <timestep time="2.00">
        <vehicle id="oncoming1" x="94.58" y="1.65" angle="270.00" type="DEFAULT_VEHTYPE" speed="3.98" pos="105.42" lane="-VODUGES_beg_0" slope="0.00"/>
        <vehicle id="oncoming2" x="194.69" y="1.65" angle="270.00" type="DEFAULT_VEHTYPE" speed="3.63" pos="5.31" lane="-VODUGES_beg_0" slope="0.00"/>
        <vehicle id="overtaking" x="6.14" y="-1.65" angle="90.00" type="DEFAULT_VEHTYPE" speed="3.94" pos="6.14" lane="VODUGES_beg_0" slope="0.00"/>
        <vehicle id="slow" x="41.65" y="-1.65" angle="90.00" type="slow" speed="0.65" pos="41.65" lane="VODUGES_beg_0" slope="0.00"/>
    </timestep>
    <timestep time="3.00">
        <vehicle id="oncoming1" x="88.76" y="1.65" angle="270.00" type="DEFAULT_VEHTYPE" speed="5.82" pos="111.24" lane="-VODUGES_beg_0" slope="0.00"/>
        <vehicle id="oncoming2" x="188.51" y="1.65" angle="270.00" type="DEFAULT_VEHTYPE" speed="6.18" pos="11.49" lane="-VODUGES_beg_0" slope="0.00"/>
        <vehicle id="overtaking" x="11.45" y="-1.65" angle="90.00" type="DEFAULT_VEHTYPE" speed="5.31" pos="11.45" lane="VODUGES_beg_0" slope="0.00"/>
        <vehicle id="slow" x="42.30" y="-1.65" angle="90.00" type="slow" speed="0.66" pos="42.30" lane="VODUGES_beg_0" slope="0.00"/>
    </timestep>
    <timestep time="4.00">
        <vehicle id="oncoming1" x="81.31" y="1.65" angle="270.00" type="DEFAULT_VEHTYPE" speed="7.45" pos="118.69" lane="-VODUGES_beg_0" slope="0.00"/>
        <vehicle id="oncoming2" x="180.06" y="1.65" angle="270.00" type="DEFAULT_VEHTYPE" speed="8.46" pos="19.94" lane="-VODUGES_beg_0" slope="0.00"/>
        <vehicle id="overtaking" x="18.34" y="-1.65" angle="90.00" type="DEFAULT_VEHTYPE" speed="6.90" pos="18.34" lane="VODUGES_beg_0" slope="0.00"/>
        <vehicle id="slow" x="43.15" y="-1.65" angle="90.00" type="slow" speed="0.85" pos="43.15" lane="VODUGES_beg_0" slope="0.00"/>
    </timestep>
    <timestep time="5.00">
        <vehicle id="oncoming1" x="71.97" y="1.65" angle="270.00" type="DEFAULT_VEHTYPE" speed="9.34" pos="128.03" lane="-VODUGES_beg_0" slope="0.00"/>
        <vehicle id="oncoming2" x="169.97" y="1.65" angle="270.00" type="DEFAULT_VEHTYPE" speed="10.09" pos="30.03" lane="-VODUGES_beg_0" slope="0.00"/>
        <vehicle id="overtaking" x="26.96" y="-1.65" angle="90.00" type="DEFAULT_VEHTYPE" speed="8.62" pos="26.96" lane="VODUGES_beg_0" slope="0.00"/>
        <vehicle id="slow" x="44.12" y="-1.65" angle="90.00" type="slow" speed="0.96" pos="44.12" lane="VODUGES_beg_0" slope="0.00"/>
    </timestep>
    <timestep time="6.00">
        <vehicle id="oncoming1" x="60.04" y="1.65" angle="270.00" type="DEFAULT_VEHTYPE" speed="11.93" pos="139.96" lane="-VODUGES_beg_0" slope="0.00"/>
        <vehicle id="oncoming2" x="158.16" y="1.65" angle="270.00" type="DEFAULT_VEHTYPE" speed="11.81" pos="41.84" lane="-VODUGES_beg_0" slope="0.00"/>
        <vehicle id="overtaking" x="33.03" y="-1.65" angle="90.00" type="DEFAULT_VEHTYPE" speed="6.07" pos="33.03" lane="VODUGES_beg_0" slope="0.00"/>
        <vehicle id="slow" x="44.89" y="-1.65" angle="90.00" type="slow" speed="0.77" pos="44.89" lane="VODUGES_beg_0" slope="0.00"/>
    </timestep>
    <timestep time="7.00">
        <vehicle id="oncoming1" x="46.75" y="1.65" angle="270.00" type="DEFAULT_VEHTYPE" speed="13.28" pos="153.25" lane="-VODUGES_beg_0" slope="0.00"/>
        <vehicle id="oncoming2" x="144.85" y="1.65" angle="270.00" type="DEFAULT_VEHTYPE" speed="13.30" pos="55.15" lane="-VODUGES_beg_0" slope="0.00"/>
        <vehicle id="overtaking" x="36.32" y="-1.65" angle="90.00" type="DEFAULT_VEHTYPE" speed="3.29" pos="36.32" lane="VODUGES_beg_0" slope="0.00"/>
        <vehicle id="slow" x="45.75" y="-1.65" angle="90.00" type="slow" speed="0.86" pos="45.75" lane="VODUGES_beg_0" slope="0.00"/>
    </timestep>
    <timestep time="8.00">
        <vehicle id="oncoming1" x="33.60" y="1.65" angle="270.00" type="DEFAULT_VEHTYPE" speed="13.15" pos="166.40" lane="-VODUGES_beg_0" slope="0.00"/>
        <vehicle id="oncoming2" x="131.31" y="1.65" angle="270.00" type="DEFAULT_VEHTYPE" speed="13.55" pos="68.69" lane="-VODUGES_beg_0" slope="0.00"/>
        <vehicle id="overtaking" x="37.59" y="-1.65" angle="90.00" type="DEFAULT_VEHTYPE" speed="1.27" pos="37.59" lane="VODUGES_beg_0" slope="0.00"/>
        <vehicle id="slow" x="46.51" y="-1.65" angle="90.00" type="slow" speed="0.77" pos="46.51" lane="VODUGES_beg_0" slope="0.00"/>
    </timestep>
    <timestep time="9.00">
        <vehicle id="oncoming1" x="19.79" y="1.65" angle="270.00" type="DEFAULT_VEHTYPE" speed="13.81" pos="180.21" lane="-VODUGES_beg_0" slope="0.00"/>
        <vehicle id="oncoming2" x="118.56" y="1.65" angle="270.00" type="DEFAULT_VEHTYPE" speed="12.75" pos="81.44" lane="-VODUGES_beg_0" slope="0.00"/>
        <vehicle id="overtaking" x="38.64" y="-1.65" angle="90.00" type="DEFAULT_VEHTYPE" speed="1.05" pos="38.64" lane="VODUGES_beg_0" slope="0.00"/>
        <vehicle id="slow" x="47.34" y="-1.65" angle="90.00" type="slow" speed="0.83" pos="47.34" lane="VODUGES_beg_0" slope="0.00"/>
    </timestep>
    <timestep time="10.00">
        <vehicle id="oncoming1" x="6.32" y="1.65" angle="270.00" type="DEFAULT_VEHTYPE" speed="13.47" pos="193.68" lane="-VODUGES_beg_0" slope="0.00"/>
        <vehicle id="oncoming2" x="105.55" y="1.65" angle="270.00" type="DEFAULT_VEHTYPE" speed="13.00" pos="94.45" lane="-VODUGES_beg_0" slope="0.00"/>
        <vehicle id="overtaking" x="39.53" y="-1.65" angle="90.00" type="DEFAULT_VEHTYPE" speed="0.89" pos="39.53" lane="VODUGES_beg_0" slope="0.00"/>
        <vehicle id="slow" x="47.93" y="-1.65" angle="90.00" type="slow" speed="0.59" pos="47.93" lane="VODUGES_beg_0" slope="0.00"/>
    </timestep>
    <timestep time="11.00">
        <vehicle id="oncoming2" x="92.33" y="1.65" angle="270.00" type="DEFAULT_VEHTYPE" speed="13.22" pos="107.67" lane="-VODUGES_beg_0" slope="0.00"/>
        <vehicle id="overtaking" x="40.12" y="-1.65" angle="90.00" type="DEFAULT_VEHTYPE" speed="0.59" pos="40.12" lane="VODUGES_beg_0" slope="0.00"/>
        <vehicle id="slow" x="48.89" y="-1.65" angle="90.00" type="slow" speed="0.95" pos="48.89" lane="VODUGES_beg_0" slope="0.00"/>
    </timestep>
    <timestep time="12.00">
        <vehicle id="oncoming2" x="78.84" y="1.65" angle="270.00" type="DEFAULT_VEHTYPE" speed="13.49" pos="121.16" lane="-VODUGES_beg_0" slope="0.00"/>
        <vehicle id="overtaking" x="40.78" y="-1.65" angle="90.00" type="DEFAULT_VEHTYPE" speed="0.66" pos="40.78" lane="VODUGES_beg_0" slope="0.00"/>
        <vehicle id="slow" x="49.78" y="-1.65" angle="90.00" type="slow" speed="0.89" pos="49.78" lane="VODUGES_beg_0" slope="0.00"/>
    </timestep>
    <timestep time="13.00">
        <vehicle id="oncoming2" x="65.77" y="1.65" angle="270.00" type="DEFAULT_VEHTYPE" speed="13.07" pos="134.23" lane="-VODUGES_beg_0" slope="0.00"/>
        <vehicle id="overtaking" x="42.17" y="-1.65" angle="90.00" type="DEFAULT_VEHTYPE" speed="1.39" pos="42.17" lane="VODUGES_beg_0" slope="0.00"/>
        <vehicle id="slow" x="50.68" y="-1.65" angle="90.00" type="slow" speed="0.91" pos="50.68" lane="VODUGES_beg_0" slope="0.00"/>
    </timestep>
    <timestep time="14.00">
        <vehicle id="oncoming2" x="53.10" y="1.65" angle="270.00" type="DEFAULT_VEHTYPE" speed="12.67" pos="146.90" lane="-VODUGES_beg_0" slope="0.00"/>
        <vehicle id="overtaking" x="43.10" y="-1.65" angle="90.00" type="DEFAULT_VEHTYPE" speed="0.93" pos="43.10" lane="VODUGES_beg_0" slope="0.00"/>
        <vehicle id="slow" x="51.57" y="-1.65" angle="90.00" type="slow" speed="0.89" pos="51.57" lane="VODUGES_beg_0" slope="0.00"/>
    </timestep>
    <timestep time="15.00">
        <vehicle id="oncoming2" x="40.29" y="1.65" angle="270.00" type="DEFAULT_VEHTYPE" speed="12.82" pos="159.71" lane="-VODUGES_beg_0" slope="0.00"/>
        <vehicle id="overtaking" x="43.80" y="-1.65" angle="90.00" type="DEFAULT_VEHTYPE" speed="0.69" pos="43.80" lane="VODUGES_beg_0" slope="0.00"/>
        <vehicle id="slow" x="52.40" y="-1.65" angle="90.00" type="slow" speed="0.83" pos="52.40" lane="VODUGES_beg_0" slope="0.00"/>
    </timestep>
    <timestep time="16.00">
        <vehicle id="oncoming2" x="27.55" y="1.65" angle="270.00" type="DEFAULT_VEHTYPE" speed="12.74" pos="172.45" lane="-VODUGES_beg_0" slope="0.00"/>
        <vehicle id="overtaking" x="44.45" y="-1.65" angle="90.00" type="DEFAULT_VEHTYPE" speed="0.66" pos="44.45" lane="VODUGES_beg_0" slope="0.00"/>
        <vehicle id="slow" x="53.34" y="-1.65" angle="90.00" type="slow" speed="0.94" pos="53.34" lane="VODUGES_beg_0" slope="0.00"/>
    </timestep>
    <timestep time="17.00">
        <vehicle id="oncoming2" x="14.18" y="1.65" angle="270.00" type="DEFAULT_VEHTYPE" speed="13.37" pos="185.82" lane="-VODUGES_beg_0" slope="0.00"/>
        <vehicle id="overtaking" x="45.26" y="1.65" angle="90.00" type="DEFAULT_VEHTYPE" speed="0.81" pos="154.74" lane="-VODUGES_beg_0" slope="0.00"/>
        <vehicle id="slow" x="54.15" y="-1.65" angle="90.00" type="slow" speed="0.81" pos="54.15" lane="VODUGES_beg_0" slope="0.00"/>
    </timestep>
    <timestep time="18.00">
        <vehicle id="oncoming2" x="0.99" y="1.65" angle="270.00" type="DEFAULT_VEHTYPE" speed="13.18" pos="199.01" lane="-VODUGES_beg_0" slope="0.00"/>
        <vehicle id="overtaking" x="48.36" y="1.65" angle="90.00" type="DEFAULT_VEHTYPE" speed="3.10" pos="151.64" lane="-VODUGES_beg_0" slope="0.00"/>
        <vehicle id="slow" x="54.66" y="-1.65" angle="90.00" type="slow" speed="0.52" pos="54.66" lane="VODUGES_beg_0" slope="0.00"/>
    </timestep>
    <timestep time="19.00">
        <vehicle id="overtaking" x="53.66" y="1.65" angle="90.00" type="DEFAULT_VEHTYPE" speed="5.31" pos="146.34" lane="-VODUGES_beg_0" slope="0.00"/>
        <vehicle id="slow" x="55.41" y="-1.65" angle="90.00" type="slow" speed="0.75" pos="55.41" lane="VODUGES_beg_0" slope="0.00"/>
    </timestep>
    <timestep time="20.00">
        <vehicle id="overtaking" x="60.57" y="1.65" angle="90.00" type="DEFAULT_VEHTYPE" speed="6.91" pos="139.43" lane="-VODUGES_beg_0" slope="0.00"/>
        <vehicle id="slow" x="56.37" y="-1.65" angle="90.00" type="slow" speed="0.96" pos="56.37" lane="VODUGES_beg_0" slope="0.00"/>
    </timestep>
    <timestep time="21.00">
        <vehicle id="overtaking" x="69.88" y="1.65" angle="90.00" type="DEFAULT_VEHTYPE" speed="9.30" pos="130.12" lane="-VODUGES_beg_0" slope="0.00"/>
        <vehicle id="slow" x="57.27" y="-1.65" angle="90.00" type="slow" speed="0.90" pos="57.27" lane="VODUGES_beg_0" slope="0.00"/>
    </timestep>
    <timestep time="22.00">
        <vehicle id="overtaking" x="80.54" y="-1.65" angle="90.00" type="DEFAULT_VEHTYPE" speed="10.66" pos="80.54" lane="VODUGES_beg_0" slope="0.00"/>
        <vehicle id="slow" x="57.91" y="-1.65" angle="90.00" type="slow" speed="0.63" pos="57.91" lane="VODUGES_beg_0" slope="0.00"/>
    </timestep>
    <timestep time="23.00">
        <vehicle id="overtaking" x="92.70" y="-1.65" angle="90.00" type="DEFAULT_VEHTYPE" speed="12.16" pos="92.70" lane="VODUGES_beg_0" slope="0.00"/>
        <vehicle id="slow" x="58.58" y="-1.65" angle="90.00" type="slow" speed="0.67" pos="58.58" lane="VODUGES_beg_0" slope="0.00"/>
    </timestep>
    <timestep time="24.00">
        <vehicle id="overtaking" x="105.35" y="-1.65" angle="90.00" type="DEFAULT_VEHTYPE" speed="12.65" pos="105.35" lane="VODUGES_beg_0" slope="0.00"/>
        <vehicle id="slow" x="59.23" y="-1.65" angle="90.00" type="slow" speed="0.65" pos="59.23" lane="VODUGES_beg_0" slope="0.00"/>
    </timestep>
    <timestep time="25.00">
        <vehicle id="overtaking" x="118.43" y="-1.65" angle="90.00" type="DEFAULT_VEHTYPE" speed="13.08" pos="118.43" lane="VODUGES_beg_0" slope="0.00"/>
        <vehicle id="slow" x="60.15" y="-1.65" angle="90.00" type="slow" speed="0.92" pos="60.15" lane="VODUGES_beg_0" slope="0.00"/>
    </timestep>
    <timestep time="26.00">
        <vehicle id="overtaking" x="131.53" y="-1.65" angle="90.00" type="DEFAULT_VEHTYPE" speed="13.10" pos="131.53" lane="VODUGES_beg_0" slope="0.00"/>
        <vehicle id="slow" x="60.90" y="-1.65" angle="90.00" type="slow" speed="0.75" pos="60.90" lane="VODUGES_beg_0" slope="0.00"/>
    </timestep>
    <timestep time="27.00">
        <vehicle id="overtaking" x="144.45" y="-1.65" angle="90.00" type="DEFAULT_VEHTYPE" speed="12.92" pos="144.45" lane="VODUGES_beg_0" slope="0.00"/>
        <vehicle id="slow" x="61.83" y="-1.65" angle="90.00" type="slow" speed="0.92" pos="61.83" lane="VODUGES_beg_0" slope="0.00"/>
    </timestep>
    <timestep time="28.00">
        <vehicle id="overtaking" x="157.68" y="-1.65" angle="90.00" type="DEFAULT_VEHTYPE" speed="13.23" pos="157.68" lane="VODUGES_beg_0" slope="0.00"/>
        <vehicle id="slow" x="62.52" y="-1.65" angle="90.00" type="slow" speed="0.69" pos="62.52" lane="VODUGES_beg_0" slope="0.00"/>
    </timestep>
    <timestep time="29.00">
        <vehicle id="overtaking" x="171.15" y="-1.65" angle="90.00" type="DEFAULT_VEHTYPE" speed="13.47" pos="171.15" lane="VODUGES_beg_0" slope="0.00"/>
        <vehicle id="slow" x="63.24" y="-1.65" angle="90.00" type="slow" speed="0.73" pos="63.24" lane="VODUGES_beg_0" slope="0.00"/>
    </timestep>
    <timestep time="30.00">
        <vehicle id="overtaking" x="184.32" y="-1.65" angle="90.00" type="DEFAULT_VEHTYPE" speed="13.17" pos="184.32" lane="VODUGES_beg_0" slope="0.00"/>
        <vehicle id="slow" x="63.80" y="-1.65" angle="90.00" type="slow" speed="0.56" pos="63.80" lane="VODUGES_beg_0" slope="0.00"/>
    </timestep>
    <timestep time="31.00">
        <vehicle id="overtaking" x="197.34" y="-1.65" angle="90.00" type="DEFAULT_VEHTYPE" speed="13.02" pos="197.34" lane="VODUGES_beg_0" slope="0.00"/>
        <vehicle id="slow" x="64.57" y="-1.65" angle="90.00" type="slow" speed="0.76" pos="64.57" lane="VODUGES_beg_0" slope="0.00"/>
    </timestep>
    <timestep time="32.00">
        <vehicle id="slow" x="65.34" y="-1.65" angle="90.00" type="slow" speed="0.77" pos="65.34" lane="VODUGES_beg_0" slope="0.00"/>
    </timestep>
    <timestep time="33.00">
        <vehicle id="slow" x="66.30" y="-1.65" angle="90.00" type="slow" speed="0.96" pos="66.30" lane="VODUGES_beg_0" slope="0.00"/>
    </timestep>
    <timestep time="34.00">
        <vehicle id="slow" x="67.16" y="-1.65" angle="90.00" type="slow" speed="0.86" pos="67.16" lane="VODUGES_beg_0" slope="0.00"/>
    </timestep>
    <timestep time="35.00">
        <vehicle id="slow" x="67.92" y="-1.65" angle="90.00" type="slow" speed="0.75" pos="67.92" lane="VODUGES_beg_0" slope="0.00"/>
    </timestep>
    <timestep time="36.00">
        <vehicle id="slow" x="68.84" y="-1.65" angle="90.00" type="slow" speed="0.92" pos="68.84" lane="VODUGES_beg_0" slope="0.00"/>
    </timestep>
    <timestep time="37.00">
        <vehicle id="slow" x="69.43" y="-1.65" angle="90.00" type="slow" speed="0.59" pos="69.43" lane="VODUGES_beg_0" slope="0.00"/>
    </timestep>
    <timestep time="38.00">
        <vehicle id="slow" x="70.17" y="-1.65" angle="90.00" type="slow" speed="0.74" pos="70.17" lane="VODUGES_beg_0" slope="0.00"/>
    </timestep>
    <timestep time="39.00">
        <vehicle id="slow" x="71.07" y="-1.65" angle="90.00" type="slow" speed="0.90" pos="71.07" lane="VODUGES_beg_0" slope="0.00"/>
    </timestep>
    <timestep time="40.00">
        <vehicle id="slow" x="71.70" y="-1.65" angle="90.00" type="slow" speed="0.63" pos="71.70" lane="VODUGES_beg_0" slope="0.00"/>
    </timestep>
    <timestep time="41.00">
        <vehicle id="slow" x="72.44" y="-1.65" angle="90.00" type="slow" speed="0.75" pos="72.44" lane="VODUGES_beg_0" slope="0.00"/>
    </timestep>
    <timestep time="42.00">
        <vehicle id="slow" x="73.03" y="-1.65" angle="90.00" type="slow" speed="0.59" pos="73.03" lane="VODUGES_beg_0" slope="0.00"/>
    </timestep>
    <timestep time="43.00">
        <vehicle id="slow" x="74.01" y="-1.65" angle="90.00" type="slow" speed="0.98" pos="74.01" lane="VODUGES_beg_0" slope="0.00"/>
    </timestep>
    <timestep time="44.00">
        <vehicle id="slow" x="74.79" y="-1.65" angle="90.00" type="slow" speed="0.78" pos="74.79" lane="VODUGES_beg_0" slope="0.00"/>
    </timestep>
    <timestep time="45.00">
        <vehicle id="slow" x="75.38" y="-1.65" angle="90.00" type="slow" speed="0.59" pos="75.38" lane="VODUGES_beg_0" slope="0.00"/>
    </timestep>
    <timestep time="46.00">
        <vehicle id="slow" x="75.93" y="-1.65" angle="90.00" type="slow" speed="0.55" pos="75.93" lane="VODUGES_beg_0" slope="0.00"/>
    </timestep>
    <timestep time="47.00">
        <vehicle id="slow" x="76.52" y="-1.65" angle="90.00" type="slow" speed="0.59" pos="76.52" lane="VODUGES_beg_0" slope="0.00"/>
    </timestep>
    <timestep time="48.00">
        <vehicle id="slow" x="77.10" y="-1.65" angle="90.00" type="slow" speed="0.59" pos="77.10" lane="VODUGES_beg_0" slope="0.00"/>
    </timestep>
    <timestep time="49.00">
        <vehicle id="slow" x="77.76" y="-1.65" angle="90.00" type="slow" speed="0.66" pos="77.76" lane="VODUGES_beg_0" slope="0.00"/>
    </timestep>
    <timestep time="50.00">
        <vehicle id="slow" x="78.62" y="-1.65" angle="90.00" type="slow" speed="0.86" pos="78.62" lane="VODUGES_beg_0" slope="0.00"/>
    </timestep>
    <timestep time="51.00">
        <vehicle id="slow" x="79.30" y="-1.65" angle="90.00" type="slow" speed="0.68" pos="79.30" lane="VODUGES_beg_0" slope="0.00"/>
    </timestep>
    <timestep time="52.00">
        <vehicle id="slow" x="80.24" y="-1.65" angle="90.00" type="slow" speed="0.94" pos="80.24" lane="VODUGES_beg_0" slope="0.00"/>
    </timestep>
    <timestep time="53.00">
        <vehicle id="slow" x="81.00" y="-1.65" angle="90.00" type="slow" speed="0.76" pos="81.00" lane="VODUGES_beg_0" slope="0.00"/>
    </timestep>
    <timestep time="54.00">
        <vehicle id="slow" x="81.72" y="-1.65" angle="90.00" type="slow" speed="0.73" pos="81.72" lane="VODUGES_beg_0" slope="0.00"/>
    </timestep>
    <timestep time="55.00">
        <vehicle id="slow" x="82.47" y="-1.65" angle="90.00" type="slow" speed="0.75" pos="82.47" lane="VODUGES_beg_0" slope="0.00"/>
    </timestep>
    <timestep time="56.00">
        <vehicle id="slow" x="83.26" y="-1.65" angle="90.00" type="slow" speed="0.79" pos="83.26" lane="VODUGES_beg_0" slope="0.00"/>
    </timestep>
    <timestep time="57.00">
        <vehicle id="slow" x="83.97" y="-1.65" angle="90.00" type="slow" speed="0.72" pos="83.97" lane="VODUGES_beg_0" slope="0.00"/>
    </timestep>
    <timestep time="58.00">
        <vehicle id="slow" x="84.78" y="-1.65" angle="90.00" type="slow" speed="0.81" pos="84.78" lane="VODUGES_beg_0" slope="0.00"/>
    </timestep>
    <timestep time="59.00">
        <vehicle id="slow" x="85.46" y="-1.65" angle="90.00" type="slow" speed="0.68" pos="85.46" lane="VODUGES_beg_0" slope="0.00"/>
    </timestep>
    <timestep time="60.00">
        <vehicle id="slow" x="86.00" y="-1.65" angle="90.00" type="slow" speed="0.54" pos="86.00" lane="VODUGES_beg_0" slope="0.00"/>
    </timestep>
    <timestep time="61.00">
        <vehicle id="slow" x="86.81" y="-1.65" angle="90.00" type="slow" speed="0.81" pos="86.81" lane="VODUGES_beg_0" slope="0.00"/>
    </timestep>
    <timestep time="62.00">
        <vehicle id="slow" x="87.63" y="-1.65" angle="90.00" type="slow" speed="0.82" pos="87.63" lane="VODUGES_beg_0" slope="0.00"/>
    </timestep>
    <timestep time="63.00">
        <vehicle id="slow" x="88.15" y="-1.65" angle="90.00" type="slow" speed="0.51" pos="88.15" lane="VODUGES_beg_0" slope="0.00"/>
    </timestep>
    <timestep time="64.00">
        <vehicle id="slow" x="88.73" y="-1.65" angle="90.00" type="slow" speed="0.59" pos="88.73" lane="VODUGES_beg_0" slope="0.00"/>
    </timestep>
    <timestep time="65.00">
        <vehicle id="slow" x="89.46" y="-1.65" angle="90.00" type="slow" speed="0.73" pos="89.46" lane="VODUGES_beg_0" slope="0.00"/>
    </timestep>
    <timestep time="66.00">
        <vehicle id="slow" x="90.34" y="-1.65" angle="90.00" type="slow" speed="0.88" pos="90.34" lane="VODUGES_beg_0" slope="0.00"/>
    </timestep>
    <timestep time="67.00">
        <vehicle id="slow" x="91.09" y="-1.65" angle="90.00" type="slow" speed="0.75" pos="91.09" lane="VODUGES_beg_0" slope="0.00"/>
    </timestep>
    <timestep time="68.00">
        <vehicle id="slow" x="91.75" y="-1.65" angle="90.00" type="slow" speed="0.66" pos="91.75" lane="VODUGES_beg_0" slope="0.00"/>
    </timestep>
    <timestep time="69.00">
        <vehicle id="slow" x="92.28" y="-1.65" angle="90.00" type="slow" speed="0.53" pos="92.28" lane="VODUGES_beg_0" slope="0.00"/>
    </timestep>
    <timestep time="70.00">
        <vehicle id="slow" x="92.92" y="-1.65" angle="90.00" type="slow" speed="0.64" pos="92.92" lane="VODUGES_beg_0" slope="0.00"/>
    </timestep>
    <timestep time="71.00">
        <vehicle id="slow" x="93.73" y="-1.65" angle="90.00" type="slow" speed="0.82" pos="93.73" lane="VODUGES_beg_0" slope="0.00"/>
    </timestep>
    <timestep time="72.00">
        <vehicle id="slow" x="94.67" y="-1.65" angle="90.00" type="slow" speed="0.94" pos="94.67" lane="VODUGES_beg_0" slope="0.00"/>
    </timestep>
    <timestep time="73.00">
        <vehicle id="slow" x="95.58" y="-1.65" angle="90.00" type="slow" speed="0.91" pos="95.58" lane="VODUGES_beg_0" slope="0.00"/>
    </timestep>
    <timestep time="74.00">
        <vehicle id="slow" x="96.35" y="-1.65" angle="90.00" type="slow" speed="0.78" pos="96.35" lane="VODUGES_beg_0" slope="0.00"/>
    </timestep>
    <timestep time="75.00">
        <vehicle id="slow" x="97.19" y="-1.65" angle="90.00" type="slow" speed="0.84" pos="97.19" lane="VODUGES_beg_0" slope="0.00"/>
    </timestep>
    <timestep time="76.00">
        <vehicle id="slow" x="98.14" y="-1.65" angle="90.00" type="slow" speed="0.95" pos="98.14" lane="VODUGES_beg_0" slope="0.00"/>
    </timestep>
    <timestep time="77.00">
        <vehicle id="slow" x="98.70" y="-1.65" angle="90.00" type="slow" speed="0.56" pos="98.70" lane="VODUGES_beg_0" slope="0.00"/>
    </timestep>
    <timestep time="78.00">
        <vehicle id="slow" x="99.40" y="-1.65" angle="90.00" type="slow" speed="0.70" pos="99.40" lane="VODUGES_beg_0" slope="0.00"/>
    </timestep>
    <timestep time="79.00">
        <vehicle id="slow" x="100.07" y="-1.65" angle="90.00" type="slow" speed="0.67" pos="100.07" lane="VODUGES_beg_0" slope="0.00"/>
    </timestep>
    <timestep time="80.00">
        <vehicle id="slow" x="100.94" y="-1.65" angle="90.00" type="slow" speed="0.87" pos="100.94" lane="VODUGES_beg_0" slope="0.00"/>
    </timestep>
    <timestep time="81.00">
        <vehicle id="slow" x="101.56" y="-1.65" angle="90.00" type="slow" speed="0.62" pos="101.56" lane="VODUGES_beg_0" slope="0.00"/>
    </timestep>
    <timestep time="82.00">
        <vehicle id="slow" x="102.55" y="-1.65" angle="90.00" type="slow" speed="0.99" pos="102.55" lane="VODUGES_beg_0" slope="0.00"/>
    </timestep>
    <timestep time="83.00">
        <vehicle id="slow" x="103.52" y="-1.65" angle="90.00" type="slow" speed="0.97" pos="103.52" lane="VODUGES_beg_0" slope="0.00"/>
    </timestep>
    <timestep time="84.00">
        <vehicle id="slow" x="104.36" y="-1.65" angle="90.00" type="slow" speed="0.84" pos="104.36" lane="VODUGES_beg_0" slope="0.00"/>
    </timestep>
    <timestep time="85.00">
        <vehicle id="slow" x="105.12" y="-1.65" angle="90.00" type="slow" speed="0.76" pos="105.12" lane="VODUGES_beg_0" slope="0.00"/>
    </timestep>
    <timestep time="86.00">
        <vehicle id="slow" x="105.82" y="-1.65" angle="90.00" type="slow" speed="0.69" pos="105.82" lane="VODUGES_beg_0" slope="0.00"/>
    </timestep>
    <timestep time="87.00">
        <vehicle id="slow" x="106.73" y="-1.65" angle="90.00" type="slow" speed="0.91" pos="106.73" lane="VODUGES_beg_0" slope="0.00"/>
    </timestep>
    <timestep time="88.00">
        <vehicle id="slow" x="107.53" y="-1.65" angle="90.00" type="slow" speed="0.80" pos="107.53" lane="VODUGES_beg_0" slope="0.00"/>
    </timestep>
    <timestep time="89.00">
        <vehicle id="slow" x="108.36" y="-1.65" angle="90.00" type="slow" speed="0.83" pos="108.36" lane="VODUGES_beg_0" slope="0.00"/>
    </timestep>
    <timestep time="90.00">
        <vehicle id="slow" x="109.25" y="-1.65" angle="90.00" type="slow" speed="0.89" pos="109.25" lane="VODUGES_beg_0" slope="0.00"/>
    </timestep>
    <timestep time="91.00">
        <vehicle id="slow" x="110.08" y="-1.65" angle="90.00" type="slow" speed="0.84" pos="110.08" lane="VODUGES_beg_0" slope="0.00"/>
    </timestep>
    <timestep time="92.00">
        <vehicle id="slow" x="110.92" y="-1.65" angle="90.00" type="slow" speed="0.83" pos="110.92" lane="VODUGES_beg_0" slope="0.00"/>
    </timestep>
    <timestep time="93.00">
        <vehicle id="slow" x="111.83" y="-1.65" angle="90.00" type="slow" speed="0.92" pos="111.83" lane="VODUGES_beg_0" slope="0.00"/>
    </timestep>
    <timestep time="94.00">
        <vehicle id="slow" x="112.80" y="-1.65" angle="90.00" type="slow" speed="0.97" pos="112.80" lane="VODUGES_beg_0" slope="0.00"/>
    </timestep>
    <timestep time="95.00">
        <vehicle id="slow" x="113.78" y="-1.65" angle="90.00" type="slow" speed="0.98" pos="113.78" lane="VODUGES_beg_0" slope="0.00"/>
    </timestep>
    <timestep time="96.00">
        <vehicle id="slow" x="114.66" y="-1.65" angle="90.00" type="slow" speed="0.88" pos="114.66" lane="VODUGES_beg_0" slope="0.00"/>
    </timestep>
    <timestep time="97.00">
        <vehicle id="slow" x="115.58" y="-1.65" angle="90.00" type="slow" speed="0.92" pos="115.58" lane="VODUGES_beg_0" slope="0.00"/>
    </timestep>
    <timestep time="98.00">
        <vehicle id="slow" x="116.21" y="-1.65" angle="90.00" type="slow" speed="0.63" pos="116.21" lane="VODUGES_beg_0" slope="0.00"/>
    </timestep>
    <timestep time="99.00">
        <vehicle id="slow" x="117.13" y="-1.65" angle="90.00" type="slow" speed="0.92" pos="117.13" lane="VODUGES_beg_0" slope="0.00"/>
    </timestep>
    <timestep time="100.00">
        <vehicle id="slow" x="117.86" y="-1.65" angle="90.00" type="slow" speed="0.73" pos="117.86" lane="VODUGES_beg_0" slope="0.00"/>
    </timestep>
    <timestep time="101.00">
        <vehicle id="slow" x="118.38" y="-1.65" angle="90.00" type="slow" speed="0.52" pos="118.38" lane="VODUGES_beg_0" slope="0.00"/>
    </timestep>
    <timestep time="102.00">
        <vehicle id="slow" x="119.07" y="-1.65" angle="90.00" type="slow" speed="0.69" pos="119.07" lane="VODUGES_beg_0" slope="0.00"/>
    </timestep>
    <timestep time="103.00">
        <vehicle id="slow" x="119.70" y="-1.65" angle="90.00" type="slow" speed="0.63" pos="119.70" lane="VODUGES_beg_0" slope="0.00"/>
    </timestep>
    <timestep time="104.00">
        <vehicle id="slow" x="120.62" y="-1.65" angle="90.00" type="slow" speed="0.92" pos="120.62" lane="VODUGES_beg_0" slope="0.00"/>
    </timestep>
    <timestep time="105.00">
        <vehicle id="slow" x="121.26" y="-1.65" angle="90.00" type="slow" speed="0.63" pos="121.26" lane="VODUGES_beg_0" slope="0.00"/>
    </timestep>
    <timestep time="106.00">
        <vehicle id="slow" x="121.84" y="-1.65" angle="90.00" type="slow" speed="0.59" pos="121.84" lane="VODUGES_beg_0" slope="0.00"/>
    </timestep>
    <timestep time="107.00">
        <vehicle id="slow" x="122.69" y="-1.65" angle="90.00" type="slow" speed="0.84" pos="122.69" lane="VODUGES_beg_0" slope="0.00"/>
    </timestep>
    <timestep time="108.00">