<?xml version="1.0" encoding="UTF-8"?>

<!-- generated on Mon Nov 12 14:33:54 2018 by Eclipse SUMO Version v1_0_1+0617-70ae16b
This data file and the accompanying materials
are made available under the terms of the Eclipse Public License v2.0
which accompanies this distribution, and is available at
http://www.eclipse.org/legal/epl-v20.html
SPDX-License-Identifier: EPL-2.0
<configuration xmlns:xsi="http://www.w3.org/2001/XMLSchema-instance" xsi:noNamespaceSchemaLocation="http://sumo.dlr.de/xsd/sumoConfiguration.xsd">

    <input>
        <net-file value="net.net.xml"/>
        <route-files value="input_routes.rou.xml"/>
    </input>

    <output>
        <write-license value="true"/>
        <fcd-output value="fcd.xml"/>
        <tripinfo-output value="tripinfos.xml"/>
    </output>

    <processing>
        <default.speeddev value="0"/>
    </processing>

    <report>
        <xml-validation value="never"/>
        <no-step-log value="true"/>
    </report>

</configuration>
-->

<fcd-export xmlns:xsi="http://www.w3.org/2001/XMLSchema-instance" xsi:noNamespaceSchemaLocation="http://sumo.dlr.de/xsd/fcd_file.xsd">
    <timestep time="0.00">
        <vehicle id="oncoming1" x="100.00" y="1.65" angle="270.00" type="DEFAULT_VEHTYPE" speed="0.00" pos="100.00" lane="-VODUGES_beg_0" slope="0.00"/>
        <vehicle id="stopped" x="40.00" y="-1.65" angle="90.00" type="DEFAULT_VEHTYPE" speed="0.00" pos="40.00" lane="VODUGES_beg_0" slope="0.00"/>
    </timestep>
    <timestep time="1.00">
        <vehicle id="oncoming1" x="98.56" y="1.65" angle="270.00" type="DEFAULT_VEHTYPE" speed="1.44" pos="101.44" lane="-VODUGES_beg_0" slope="0.00"/>
        <vehicle id="oncoming2" x="200.00" y="1.65" angle="270.00" type="DEFAULT_VEHTYPE" speed="0.00" pos="0.00" lane="-VODUGES_beg_0" slope="0.00"/>
        <vehicle id="overtaking" x="0.00" y="-1.65" angle="90.00" type="DEFAULT_VEHTYPE" speed="0.00" pos="0.00" lane="VODUGES_beg_0" slope="0.00"/>
        <vehicle id="stopped" x="42.60" y="-1.65" angle="90.00" type="DEFAULT_VEHTYPE" speed="2.60" pos="42.60" lane="VODUGES_beg_0" slope="0.00"/>
    </timestep>
    <timestep time="2.00">
        <vehicle id="oncoming1" x="95.44" y="1.65" angle="270.00" type="DEFAULT_VEHTYPE" speed="3.12" pos="104.56" lane="-VODUGES_beg_0" slope="0.00"/>
        <vehicle id="oncoming2" x="197.46" y="1.65" angle="270.00" type="DEFAULT_VEHTYPE" speed="2.54" pos="2.54" lane="-VODUGES_beg_0" slope="0.00"/>
        <vehicle id="overtaking" x="1.68" y="-1.65" angle="90.00" type="DEFAULT_VEHTYPE" speed="1.68" pos="1.68" lane="VODUGES_beg_0" slope="0.00"/>
        <vehicle id="stopped" x="47.39" y="-1.65" angle="90.00" type="DEFAULT_VEHTYPE" speed="4.79" pos="47.39" lane="VODUGES_beg_0" slope="0.00"/>
    </timestep>
    <timestep time="3.00">
        <vehicle id="oncoming1" x="90.37" y="1.65" angle="270.00" type="DEFAULT_VEHTYPE" speed="5.08" pos="109.63" lane="-VODUGES_beg_0" slope="0.00"/>
        <vehicle id="oncoming2" x="193.09" y="1.65" angle="270.00" type="DEFAULT_VEHTYPE" speed="4.37" pos="6.91" lane="-VODUGES_beg_0" slope="0.00"/>
        <vehicle id="overtaking" x="5.08" y="-1.65" angle="90.00" type="DEFAULT_VEHTYPE" speed="3.40" pos="5.08" lane="VODUGES_beg_0" slope="0.00"/>
        <vehicle id="stopped" x="49.15" y="-1.65" angle="90.00" type="DEFAULT_VEHTYPE" speed="1.76" pos="49.15" lane="VODUGES_beg_0" slope="0.00"/>
    </timestep>
    <timestep time="4.00">
        <vehicle id="oncoming1" x="82.75" y="1.65" angle="270.00" type="DEFAULT_VEHTYPE" speed="7.62" pos="117.25" lane="-VODUGES_beg_0" slope="0.00"/>
        <vehicle id="oncoming2" x="187.08" y="1.65" angle="270.00" type="DEFAULT_VEHTYPE" speed="6.01" pos="12.92" lane="-VODUGES_beg_0" slope="0.00"/>
        <vehicle id="overtaking" x="10.68" y="-1.65" angle="90.00" type="DEFAULT_VEHTYPE" speed="5.61" pos="10.68" lane="VODUGES_beg_0" slope="0.00"/>
        <vehicle id="stopped" x="49.60" y="-1.65" angle="90.00" type="DEFAULT_VEHTYPE" speed="0.45" pos="49.60" lane="VODUGES_beg_0" slope="0.00"/>
    </timestep>
    <timestep time="5.00">
        <vehicle id="oncoming1" x="72.85" y="1.65" angle="270.00" type="DEFAULT_VEHTYPE" speed="9.90" pos="127.15" lane="-VODUGES_beg_0" slope="0.00"/>
        <vehicle id="oncoming2" x="179.18" y="1.65" angle="270.00" type="DEFAULT_VEHTYPE" speed="7.90" pos="20.82" lane="-VODUGES_beg_0" slope="0.00"/>
        <vehicle id="overtaking" x="18.79" y="-1.65" angle="90.00" type="DEFAULT_VEHTYPE" speed="8.11" pos="18.79" lane="VODUGES_beg_0" slope="0.00"/>
        <vehicle id="stopped" x="49.84" y="-1.65" angle="90.00" type="DEFAULT_VEHTYPE" speed="0.25" pos="49.84" lane="VODUGES_beg_0" slope="0.00"/>
    </timestep>
    <timestep time="6.00">
        <vehicle id="oncoming1" x="61.32" y="1.65" angle="270.00" type="DEFAULT_VEHTYPE" speed="11.53" pos="138.68" lane="-VODUGES_beg_0" slope="0.00"/>
        <vehicle id="oncoming2" x="168.69" y="1.65" angle="270.00" type="DEFAULT_VEHTYPE" speed="10.49" pos="31.31" lane="-VODUGES_beg_0" slope="0.00"/>
        <vehicle id="overtaking" x="28.91" y="-1.65" angle="90.00" type="DEFAULT_VEHTYPE" speed="10.12" pos="28.91" lane="VODUGES_beg_0" slope="0.00"/>
        <vehicle id="stopped" x="49.95" y="-1.65" angle="90.00" type="DEFAULT_VEHTYPE" speed="0.10" pos="49.95" lane="VODUGES_beg_0" slope="0.00"/>
    </timestep>
    <timestep time="7.00">
        <vehicle id="oncoming1" x="48.30" y="1.65" angle="270.00" type="DEFAULT_VEHTYPE" speed="13.02" pos="151.70" lane="-VODUGES_beg_0" slope="0.00"/>
        <vehicle id="oncoming2" x="156.20" y="1.65" angle="270.00" type="DEFAULT_VEHTYPE" speed="12.48" pos="43.80" lane="-VODUGES_beg_0" slope="0.00"/>
        <vehicle id="overtaking" x="37.55" y="-1.65" angle="90.00" type="DEFAULT_VEHTYPE" speed="8.64" pos="37.55" lane="VODUGES_beg_0" slope="0.00"/>
        <vehicle id="stopped" x="49.98" y="-1.65" angle="90.00" type="DEFAULT_VEHTYPE" speed="0.03" pos="49.98" lane="VODUGES_beg_0" slope="0.00"/>
    </timestep>
    <timestep time="8.00">
        <vehicle id="oncoming1" x="35.00" y="1.65" angle="270.00" type="DEFAULT_VEHTYPE" speed="13.30" pos="165.00" lane="-VODUGES_beg_0" slope="0.00"/>
        <vehicle id="oncoming2" x="143.05" y="1.65" angle="270.00" type="DEFAULT_VEHTYPE" speed="13.15" pos="56.95" lane="-VODUGES_beg_0" slope="0.00"/>
        <vehicle id="overtaking" x="41.68" y="-1.65" angle="90.00" type="DEFAULT_VEHTYPE" speed="4.14" pos="41.68" lane="VODUGES_beg_0" slope="0.00"/>
        <vehicle id="stopped" x="49.98" y="-1.65" angle="90.00" type="DEFAULT_VEHTYPE" speed="0.00" pos="49.98" lane="VODUGES_beg_0" slope="0.00"/>
    </timestep>
    <timestep time="9.00">
        <vehicle id="oncoming1" x="21.70" y="1.65" angle="270.00" type="DEFAULT_VEHTYPE" speed="13.30" pos="178.30" lane="-VODUGES_beg_0" slope="0.00"/>
        <vehicle id="oncoming2" x="129.24" y="1.65" angle="270.00" type="DEFAULT_VEHTYPE" speed="13.81" pos="70.76" lane="-VODUGES_beg_0" slope="0.00"/>
        <vehicle id="overtaking" x="42.41" y="1.65" angle="90.00" type="DEFAULT_VEHTYPE" speed="0.73" pos="157.59" lane="-VODUGES_beg_0" slope="0.00"/>
        <vehicle id="stopped" x="49.98" y="-1.65" angle="90.00" type="DEFAULT_VEHTYPE" speed="0.00" pos="49.98" lane="VODUGES_beg_0" slope="0.00"/>
    </timestep>
    <timestep time="10.00">
        <vehicle id="oncoming1" x="8.95" y="1.65" angle="270.00" type="DEFAULT_VEHTYPE" speed="12.75" pos="191.05" lane="-VODUGES_beg_0" slope="0.00"/>
        <vehicle id="oncoming2" x="116.24" y="1.65" angle="270.00" type="DEFAULT_VEHTYPE" speed="13.00" pos="83.76" lane="-VODUGES_beg_0" slope="0.00"/>
        <vehicle id="overtaking" x="45.32" y="1.65" angle="90.00" type="DEFAULT_VEHTYPE" speed="2.91" pos="154.68" lane="-VODUGES_beg_0" slope="0.00"/>
        <vehicle id="stopped" x="49.98" y="-1.65" angle="90.00" type="DEFAULT_VEHTYPE" speed="0.00" pos="49.98" lane="VODUGES_beg_0" slope="0.00"/>
    </timestep>
    <timestep time="11.00">
        <vehicle id="oncoming2" x="102.75" y="1.65" angle="270.00" type="DEFAULT_VEHTYPE" speed="13.49" pos="97.25" lane="-VODUGES_beg_0" slope="0.00"/>
        <vehicle id="overtaking" x="50.16" y="1.65" angle="90.00" type="DEFAULT_VEHTYPE" speed="4.84" pos="149.84" lane="-VODUGES_beg_0" slope="0.00"/>
        <vehicle id="stopped" x="49.98" y="-1.65" angle="90.00" type="DEFAULT_VEHTYPE" speed="0.00" pos="49.98" lane="VODUGES_beg_0" slope="0.00"/>
    </timestep>
    <timestep time="12.00">
        <vehicle id="oncoming2" x="90.08" y="1.65" angle="270.00" type="DEFAULT_VEHTYPE" speed="12.67" pos="109.92" lane="-VODUGES_beg_0" slope="0.00"/>
        <vehicle id="overtaking" x="57.18" y="1.65" angle="90.00" type="DEFAULT_VEHTYPE" speed="7.03" pos="142.82" lane="-VODUGES_beg_0" slope="0.00"/>
        <vehicle id="stopped" x="49.98" y="-1.65" angle="90.00" type="DEFAULT_VEHTYPE" speed="0.00" pos="49.98" lane="VODUGES_beg_0" slope="0.00"/>
    </timestep>
    <timestep time="13.00">
        <vehicle id="oncoming2" x="77.34" y="1.65" angle="270.00" type="DEFAULT_VEHTYPE" speed="12.74" pos="122.66" lane="-VODUGES_beg_0" slope="0.00"/>
        <vehicle id="overtaking" x="66.28" y="-1.65" angle="90.00" type="DEFAULT_VEHTYPE" speed="9.09" pos="66.28" lane="VODUGES_beg_0" slope="0.00"/>
        <vehicle id="stopped" x="49.98" y="-1.65" angle="90.00" type="DEFAULT_VEHTYPE" speed="0.00" pos="49.98" lane="VODUGES_beg_0" slope="0.00"/>
    </timestep>
    <timestep time="14.00">
        <vehicle id="oncoming2" x="63.97" y="1.65" angle="270.00" type="DEFAULT_VEHTYPE" speed="13.37" pos="136.03" lane="-VODUGES_beg_0" slope="0.00"/>
        <vehicle id="overtaking" x="77.06" y="-1.65" angle="90.00" type="DEFAULT_VEHTYPE" speed="10.78" pos="77.06" lane="VODUGES_beg_0" slope="0.00"/>
        <vehicle id="stopped" x="49.98" y="-1.65" angle="90.00" type="DEFAULT_VEHTYPE" speed="0.00" pos="49.98" lane="VODUGES_beg_0" slope="0.00"/>
    </timestep>
    <timestep time="15.00">
        <vehicle id="oncoming2" x="50.78" y="1.65" angle="270.00" type="DEFAULT_VEHTYPE" speed="13.18" pos="149.22" lane="-VODUGES_beg_0" slope="0.00"/>
        <vehicle id="overtaking" x="89.21" y="-1.65" angle="90.00" type="DEFAULT_VEHTYPE" speed="12.14" pos="89.21" lane="VODUGES_beg_0" slope="0.00"/>
        <vehicle id="stopped" x="49.98" y="-1.65" angle="90.00" type="DEFAULT_VEHTYPE" speed="0.00" pos="49.98" lane="VODUGES_beg_0" slope="0.00"/>
    </timestep>
    <timestep time="16.00">
        <vehicle id="oncoming2" x="37.20" y="1.65" angle="270.00" type="DEFAULT_VEHTYPE" speed="13.58" pos="162.80" lane="-VODUGES_beg_0" slope="0.00"/>
        <vehicle id="overtaking" x="102.91" y="-1.65" angle="90.00" type="DEFAULT_VEHTYPE" speed="13.71" pos="102.91" lane="VODUGES_beg_0" slope="0.00"/>
        <vehicle id="stopped" x="49.98" y="-1.65" angle="90.00" type="DEFAULT_VEHTYPE" speed="0.00" pos="49.98" lane="VODUGES_beg_0" slope="0.00"/>
    </timestep>
    <timestep time="17.00">
        <vehicle id="oncoming2" x="23.35" y="1.65" angle="270.00" type="DEFAULT_VEHTYPE" speed="13.85" pos="176.65" lane="-VODUGES_beg_0" slope="0.00"/>
        <vehicle id="overtaking" x="116.59" y="-1.65" angle="90.00" type="DEFAULT_VEHTYPE" speed="13.68" pos="116.59" lane="VODUGES_beg_0" slope="0.00"/>
        <vehicle id="stopped" x="49.98" y="-1.65" angle="90.00" type="DEFAULT_VEHTYPE" speed="0.00" pos="49.98" lane="VODUGES_beg_0" slope="0.00"/>
    </timestep>
    <timestep time="18.00">
        <vehicle id="oncoming2" x="9.86" y="1.65" angle="270.00" type="DEFAULT_VEHTYPE" speed="13.50" pos="190.14" lane="-VODUGES_beg_0" slope="0.00"/>
        <vehicle id="overtaking" x="129.75" y="-1.65" angle="90.00" type="DEFAULT_VEHTYPE" speed="13.15" pos="129.75" lane="VODUGES_beg_0" slope="0.00"/>
        <vehicle id="stopped" x="49.98" y="-1.65" angle="90.00" type="DEFAULT_VEHTYPE" speed="0.00" pos="49.98" lane="VODUGES_beg_0" slope="0.00"/>
    </timestep>
    <timestep time="19.00">
        <vehicle id="overtaking" x="142.59" y="-1.65" angle="90.00" type="DEFAULT_VEHTYPE" speed="12.84" pos="142.59" lane="VODUGES_beg_0" slope="0.00"/>
        <vehicle id="stopped" x="49.98" y="-1.65" angle="90.00" type="DEFAULT_VEHTYPE" speed="0.00" pos="49.98" lane="VODUGES_beg_0" slope="0.00"/>
    </timestep>
    <timestep time="20.00">
        <vehicle id="overtaking" x="155.39" y="-1.65" angle="90.00" type="DEFAULT_VEHTYPE" speed="12.80" pos="155.39" lane="VODUGES_beg_0" slope="0.00"/>
        <vehicle id="stopped" x="49.98" y="-1.65" angle="90.00" type="DEFAULT_VEHTYPE" speed="0.00" pos="49.98" lane="VODUGES_beg_0" slope="0.00"/>
    </timestep>
    <timestep time="21.00">
        <vehicle id="overtaking" x="168.62" y="-1.65" angle="90.00" type="DEFAULT_VEHTYPE" speed="13.23" pos="168.62" lane="VODUGES_beg_0" slope="0.00"/>
        <vehicle id="stopped" x="49.98" y="-1.65" angle="90.00" type="DEFAULT_VEHTYPE" speed="0.00" pos="49.98" lane="VODUGES_beg_0" slope="0.00"/>
    </timestep>
    <timestep time="22.00">
        <vehicle id="overtaking" x="182.27" y="-1.65" angle="90.00" type="DEFAULT_VEHTYPE" speed="13.64" pos="182.27" lane="VODUGES_beg_0" slope="0.00"/>
        <vehicle id="stopped" x="49.98" y="-1.65" angle="90.00" type="DEFAULT_VEHTYPE" speed="0.00" pos="49.98" lane="VODUGES_beg_0" slope="0.00"/>
    </timestep>
    <timestep time="23.00">
        <vehicle id="overtaking" x="195.05" y="-1.65" angle="90.00" type="DEFAULT_VEHTYPE" speed="12.79" pos="195.05" lane="VODUGES_beg_0" slope="0.00"/>
        <vehicle id="stopped" x="49.98" y="-1.65" angle="90.00" type="DEFAULT_VEHTYPE" speed="0.00" pos="49.98" lane="VODUGES_beg_0" slope="0.00"/>
    </timestep>
    <timestep time="24.00">
        <vehicle id="stopped" x="49.98" y="-1.65" angle="90.00" type="DEFAULT_VEHTYPE" speed="0.00" pos="49.98" lane="VODUGES_beg_0" slope="0.00"/>
    </timestep>
    <timestep time="25.00">
        <vehicle id="stopped" x="49.98" y="-1.65" angle="90.00" type="DEFAULT_VEHTYPE" speed="0.00" pos="49.98" lane="VODUGES_beg_0" slope="0.00"/>
    </timestep>
    <timestep time="26.00">
        <vehicle id="stopped" x="49.98" y="-1.65" angle="90.00" type="DEFAULT_VEHTYPE" speed="0.00" pos="49.98" lane="VODUGES_beg_0" slope="0.00"/>
    </timestep>
    <timestep time="27.00">
        <vehicle id="stopped" x="49.98" y="-1.65" angle="90.00" type="DEFAULT_VEHTYPE" speed="0.00" pos="49.98" lane="VODUGES_beg_0" slope="0.00"/>
    </timestep>
    <timestep time="28.00">
        <vehicle id="stopped" x="49.98" y="-1.65" angle="90.00" type="DEFAULT_VEHTYPE" speed="0.00" pos="49.98" lane="VODUGES_beg_0" slope="0.00"/>
    </timestep>
    <timestep time="29.00">
        <vehicle id="stopped" x="49.98" y="-1.65" angle="90.00" type="DEFAULT_VEHTYPE" speed="0.00" pos="49.98" lane="VODUGES_beg_0" slope="0.00"/>
    </timestep>
    <timestep time="30.00">
        <vehicle id="stopped" x="49.98" y="-1.65" angle="90.00" type="DEFAULT_VEHTYPE" speed="0.00" pos="49.98" lane="VODUGES_beg_0" slope="0.00"/>
    </timestep>
    <timestep time="31.00">
        <vehicle id="stopped" x="49.98" y="-1.65" angle="90.00" type="DEFAULT_VEHTYPE" speed="0.00" pos="49.98" lane="VODUGES_beg_0" slope="0.00"/>
    </timestep>
    <timestep time="32.00">
        <vehicle id="stopped" x="49.98" y="-1.65" angle="90.00" type="DEFAULT_VEHTYPE" speed="0.00" pos="49.98" lane="VODUGES_beg_0" slope="0.00"/>
    </timestep>
    <timestep time="33.00">
        <vehicle id="stopped" x="49.98" y="-1.65" angle="90.00" type="DEFAULT_VEHTYPE" speed="0.00" pos="49.98" lane="VODUGES_beg_0" slope="0.00"/>
    </timestep>
    <timestep time="34.00">
        <vehicle id="stopped" x="49.98" y="-1.65" angle="90.00" type="DEFAULT_VEHTYPE" speed="0.00" pos="49.98" lane="VODUGES_beg_0" slope="0.00"/>
    </timestep>
    <timestep time="35.00">
        <vehicle id="stopped" x="49.98" y="-1.65" angle="90.00" type="DEFAULT_VEHTYPE" speed="0.00" pos="49.98" lane="VODUGES_beg_0" slope="0.00"/>
    </timestep>
    <timestep time="36.00">
        <vehicle id="stopped" x="49.98" y="-1.65" angle="90.00" type="DEFAULT_VEHTYPE" speed="0.00" pos="49.98" lane="VODUGES_beg_0" slope="0.00"/>
    </timestep>
    <timestep time="37.00">
        <vehicle id="stopped" x="49.98" y="-1.65" angle="90.00" type="DEFAULT_VEHTYPE" speed="0.00" pos="49.98" lane="VODUGES_beg_0" slope="0.00"/>
    </timestep>
    <timestep time="38.00">
        <vehicle id="stopped" x="49.98" y="-1.65" angle="90.00" type="DEFAULT_VEHTYPE" speed="0.00" pos="49.98" lane="VODUGES_beg_0" slope="0.00"/>
    </timestep>
    <timestep time="39.00">
        <vehicle id="stopped" x="49.98" y="-1.65" angle="90.00" type="DEFAULT_VEHTYPE" speed="0.00" pos="49.98" lane="VODUGES_beg_0" slope="0.00"/>
    </timestep>
    <timestep time="40.00">
        <vehicle id="stopped" x="49.98" y="-1.65" angle="90.00" type="DEFAULT_VEHTYPE" speed="0.00" pos="49.98" lane="VODUGES_beg_0" slope="0.00"/>
    </timestep>
    <timestep time="41.00">
        <vehicle id="stopped" x="49.98" y="-1.65" angle="90.00" type="DEFAULT_VEHTYPE" speed="0.00" pos="49.98" lane="VODUGES_beg_0" slope="0.00"/>
    </timestep>
    <timestep time="42.00">
        <vehicle id="stopped" x="49.98" y="-1.65" angle="90.00" type="DEFAULT_VEHTYPE" speed="0.00" pos="49.98" lane="VODUGES_beg_0" slope="0.00"/>
    </timestep>
    <timestep time="43.00">
        <vehicle id="stopped" x="49.98" y="-1.65" angle="90.00" type="DEFAULT_VEHTYPE" speed="0.00" pos="49.98" lane="VODUGES_beg_0" slope="0.00"/>
    </timestep>
    <timestep time="44.00">
        <vehicle id="stopped" x="49.98" y="-1.65" angle="90.00" type="DEFAULT_VEHTYPE" speed="0.00" pos="49.98" lane="VODUGES_beg_0" slope="0.00"/>
    </timestep>
    <timestep time="45.00">
        <vehicle id="stopped" x="49.98" y="-1.65" angle="90.00" type="DEFAULT_VEHTYPE" speed="0.00" pos="49.98" lane="VODUGES_beg_0" slope="0.00"/>
    </timestep>
    <timestep time="46.00">
        <vehicle id="stopped" x="49.98" y="-1.65" angle="90.00" type="DEFAULT_VEHTYPE" speed="0.00" pos="49.98" lane="VODUGES_beg_0" slope="0.00"/>
    </timestep>
    <timestep time="47.00">
        <vehicle id="stopped" x="49.98" y="-1.65" angle="90.00" type="DEFAULT_VEHTYPE" speed="0.00" pos="49.98" lane="VODUGES_beg_0" slope="0.00"/>
    </timestep>
    <timestep time="48.00">
        <vehicle id="stopped" x="49.98" y="-1.65" angle="90.00" type="DEFAULT_VEHTYPE" speed="0.00" pos="49.98" lane="VODUGES_beg_0" slope="0.00"/>
    </timestep>
    <timestep time="49.00">
        <vehicle id="stopped" x="49.98" y="-1.65" angle="90.00" type="DEFAULT_VEHTYPE" speed="0.00" pos="49.98" lane="VODUGES_beg_0" slope="0.00"/>
    </timestep>
    <timestep time="50.00">
        <vehicle id="stopped" x="49.98" y="-1.65" angle="90.00" type="DEFAULT_VEHTYPE" speed="0.00" pos="49.98" lane="VODUGES_beg_0" slope="0.00"/>
    </timestep>
    <timestep time="51.00">
        <vehicle id="stopped" x="49.98" y="-1.65" angle="90.00" type="DEFAULT_VEHTYPE" speed="0.00" pos="49.98" lane="VODUGES_beg_0" slope="0.00"/>
    </timestep>
    <timestep time="52.00">
        <vehicle id="stopped" x="49.98" y="-1.65" angle="90.00" type="DEFAULT_VEHTYPE" speed="0.00" pos="49.98" lane="VODUGES_beg_0" slope="0.00"/>
    </timestep>
    <timestep time="53.00">
        <vehicle id="stopped" x="49.98" y="-1.65" angle="90.00" type="DEFAULT_VEHTYPE" speed="0.00" pos="49.98" lane="VODUGES_beg_0" slope="0.00"/>
    </timestep>
    <timestep time="54.00">
        <vehicle id="stopped" x="49.98" y="-1.65" angle="90.00" type="DEFAULT_VEHTYPE" speed="0.00" pos="49.98" lane="VODUGES_beg_0" slope="0.00"/>
    </timestep>
    <timestep time="55.00">
        <vehicle id="stopped" x="49.98" y="-1.65" angle="90.00" type="DEFAULT_VEHTYPE" speed="0.00" pos="49.98" lane="VODUGES_beg_0" slope="0.00"/>
    </timestep>
    <timestep time="56.00">
        <vehicle id="stopped" x="49.98" y="-1.65" angle="90.00" type="DEFAULT_VEHTYPE" speed="0.00" pos="49.98" lane="VODUGES_beg_0" slope="0.00"/>
    </timestep>
    <timestep time="57.00">
        <vehicle id="stopped" x="49.98" y="-1.65" angle="90.00" type="DEFAULT_VEHTYPE" speed="0.00" pos="49.98" lane="VODUGES_beg_0" slope="0.00"/>
    </timestep>
    <timestep time="58.00">
        <vehicle id="stopped" x="49.98" y="-1.65" angle="90.00" type="DEFAULT_VEHTYPE" speed="0.00" pos="49.98" lane="VODUGES_beg_0" slope="0.00"/>
    </timestep>
    <timestep time="59.00">
        <vehicle id="stopped" x="49.98" y="-1.65" angle="90.00" type="DEFAULT_VEHTYPE" speed="0.00" pos="49.98" lane="VODUGES_beg_0" slope="0.00"/>
    </timestep>
    <timestep time="60.00">
        <vehicle id="stopped" x="49.98" y="-1.65" angle="90.00" type="DEFAULT_VEHTYPE" speed="0.00" pos="49.98" lane="VODUGES_beg_0" slope="0.00"/>
    </timestep>
    <timestep time="61.00">
        <vehicle id="stopped" x="49.98" y="-1.65" angle="90.00" type="DEFAULT_VEHTYPE" speed="0.00" pos="49.98" lane="VODUGES_beg_0" slope="0.00"/>
    </timestep>
    <timestep time="62.00">
        <vehicle id="stopped" x="49.98" y="-1.65" angle="90.00" type="DEFAULT_VEHTYPE" speed="0.00" pos="49.98" lane="VODUGES_beg_0" slope="0.00"/>
    </timestep>
    <timestep time="63.00">
        <vehicle id="stopped" x="49.98" y="-1.65" angle="90.00" type="DEFAULT_VEHTYPE" speed="0.00" pos="49.98" lane="VODUGES_beg_0" slope="0.00"/>
    </timestep>
    <timestep time="64.00">
        <vehicle id="stopped" x="49.98" y="-1.65" angle="90.00" type="DEFAULT_VEHTYPE" speed="0.00" pos="49.98" lane="VODUGES_beg_0" slope="0.00"/>
    </timestep>
    <timestep time="65.00">
        <vehicle id="stopped" x="49.98" y="-1.65" angle="90.00" type="DEFAULT_VEHTYPE" speed="0.00" pos="49.98" lane="VODUGES_beg_0" slope="0.00"/>
    </timestep>
    <timestep time="66.00">
        <vehicle id="stopped" x="49.98" y="-1.65" angle="90.00" type="DEFAULT_VEHTYPE" speed="0.00" pos="49.98" lane="VODUGES_beg_0" slope="0.00"/>
    </timestep>
    <timestep time="67.00">
        <vehicle id="stopped" x="49.98" y="-1.65" angle="90.00" type="DEFAULT_VEHTYPE" speed="0.00" pos="49.98" lane="VODUGES_beg_0" slope="0.00"/>
    </timestep>
    <timestep time="68.00">
        <vehicle id="stopped" x="49.98" y="-1.65" angle="90.00" type="DEFAULT_VEHTYPE" speed="0.00" pos="49.98" lane="VODUGES_beg_0" slope="0.00"/>
    </timestep>
    <timestep time="69.00">
        <vehicle id="stopped" x="49.98" y="-1.65" angle="90.00" type="DEFAULT_VEHTYPE" speed="0.00" pos="49.98" lane="VODUGES_beg_0" slope="0.00"/>
    </timestep>
    <timestep time="70.00">
        <vehicle id="stopped" x="49.98" y="-1.65" angle="90.00" type="DEFAULT_VEHTYPE" speed="0.00" pos="49.98" lane="VODUGES_beg_0" slope="0.00"/>
    </timestep>
    <timestep time="71.00">
        <vehicle id="stopped" x="49.98" y="-1.65" angle="90.00" type="DEFAULT_VEHTYPE" speed="0.00" pos="49.98" lane="VODUGES_beg_0" slope="0.00"/>
    </timestep>
    <timestep time="72.00">
        <vehicle id="stopped" x="49.98" y="-1.65" angle="90.00" type="DEFAULT_VEHTYPE" speed="0.00" pos="49.98" lane="VODUGES_beg_0" slope="0.00"/>
    </timestep>
    <timestep time="73.00">
        <vehicle id="stopped" x="49.98" y="-1.65" angle="90.00" type="DEFAULT_VEHTYPE" speed="0.00" pos="49.98" lane="VODUGES_beg_0" slope="0.00"/>
    </timestep>
    <timestep time="74.00">
        <vehicle id="stopped" x="49.98" y="-1.65" angle="90.00" type="DEFAULT_VEHTYPE" speed="0.00" pos="49.98" lane="VODUGES_beg_0" slope="0.00"/>
    </timestep>
    <timestep time="75.00">
        <vehicle id="stopped" x="49.98" y="-1.65" angle="90.00" type="DEFAULT_VEHTYPE" speed="0.00" pos="49.98" lane="VODUGES_beg_0" slope="0.00"/>
    </timestep>
    <timestep time="76.00">
        <vehicle id="stopped" x="49.98" y="-1.65" angle="90.00" type="DEFAULT_VEHTYPE" speed="0.00" pos="49.98" lane="VODUGES_beg_0" slope="0.00"/>
    </timestep>
    <timestep time="77.00">
        <vehicle id="stopped" x="49.98" y="-1.65" angle="90.00" type="DEFAULT_VEHTYPE" speed="0.00" pos="49.98" lane="VODUGES_beg_0" slope="0.00"/>
    </timestep>
    <timestep time="78.00">
        <vehicle id="stopped" x="49.98" y="-1.65" angle="90.00" type="DEFAULT_VEHTYPE" speed="0.00" pos="49.98" lane="VODUGES_beg_0" slope="0.00"/>
    </timestep>
    <timestep time="79.00">
        <vehicle id="stopped" x="49.98" y="-1.65" angle="90.00" type="DEFAULT_VEHTYPE" speed="0.00" pos="49.98" lane="VODUGES_beg_0" slope="0.00"/>
    </timestep>
    <timestep time="80.00">
        <vehicle id="stopped" x="49.98" y="-1.65" angle="90.00" type="DEFAULT_VEHTYPE" speed="0.00" pos="49.98" lane="VODUGES_beg_0" slope="0.00"/>
    </timestep>
    <timestep time="81.00">
        <vehicle id="stopped" x="49.98" y="-1.65" angle="90.00" type="DEFAULT_VEHTYPE" speed="0.00" pos="49.98" lane="VODUGES_beg_0" slope="0.00"/>
    </timestep>
    <timestep time="82.00">
        <vehicle id="stopped" x="49.98" y="-1.65" angle="90.00" type="DEFAULT_VEHTYPE" speed="0.00" pos="49.98" lane="VODUGES_beg_0" slope="0.00"/>
    </timestep>
    <timestep time="83.00">
        <vehicle id="stopped" x="49.98" y="-1.65" angle="90.00" type="DEFAULT_VEHTYPE" speed="0.00" pos="49.98" lane="VODUGES_beg_0" slope="0.00"/>
    </timestep>
    <timestep time="84.00">
        <vehicle id="stopped" x="49.98" y="-1.65" angle="90.00" type="DEFAULT_VEHTYPE" speed="0.00" pos="49.98" lane="VODUGES_beg_0" slope="0.00"/>
    </timestep>
    <timestep time="85.00">
        <vehicle id="stopped" x="49.98" y="-1.65" angle="90.00" type="DEFAULT_VEHTYPE" speed="0.00" pos="49.98" lane="VODUGES_beg_0" slope="0.00"/>
    </timestep>
    <timestep time="86.00">
        <vehicle id="stopped" x="49.98" y="-1.65" angle="90.00" type="DEFAULT_VEHTYPE" speed="0.00" pos="49.98" lane="VODUGES_beg_0" slope="0.00"/>
    </timestep>
    <timestep time="87.00">
        <vehicle id="stopped" x="49.98" y="-1.65" angle="90.00" type="DEFAULT_VEHTYPE" speed="0.00" pos="49.98" lane="VODUGES_beg_0" slope="0.00"/>
    </timestep>
    <timestep time="88.00">
        <vehicle id="stopped" x="49.98" y="-1.65" angle="90.00" type="DEFAULT_VEHTYPE" speed="0.00" pos="49.98" lane="VODUGES_beg_0" slope="0.00"/>
    </timestep>
    <timestep time="89.00">
        <vehicle id="stopped" x="49.98" y="-1.65" angle="90.00" type="DEFAULT_VEHTYPE" speed="0.00" pos="49.98" lane="VODUGES_beg_0" slope="0.00"/>
    </timestep>
    <timestep time="90.00">
        <vehicle id="stopped" x="49.98" y="-1.65" angle="90.00" type="DEFAULT_VEHTYPE" speed="0.00" pos="49.98" lane="VODUGES_beg_0" slope="0.00"/>
    </timestep>
    <timestep time="91.00">
        <vehicle id="stopped" x="49.98" y="-1.65" angle="90.00" type="DEFAULT_VEHTYPE" speed="0.00" pos="49.98" lane="VODUGES_beg_0" slope="0.00"/>
    </timestep>
    <timestep time="92.00">
        <vehicle id="stopped" x="49.98" y="-1.65" angle="90.00" type="DEFAULT_VEHTYPE" speed="0.00" pos="49.98" lane="VODUGES_beg_0" slope="0.00"/>
    </timestep>
    <timestep time="93.00">
        <vehicle id="stopped" x="49.98" y="-1.65" angle="90.00" type="DEFAULT_VEHTYPE" speed="0.00" pos="49.98" lane="VODUGES_beg_0" slope="0.00"/>
    </timestep>
    <timestep time="94.00">
        <vehicle id="stopped" x="49.98" y="-1.65" angle="90.00" type="DEFAULT_VEHTYPE" speed="0.00" pos="49.98" lane="VODUGES_beg_0" slope="0.00"/>
    </timestep>
    <timestep time="95.00">
        <vehicle id="stopped" x="49.98" y="-1.65" angle="90.00" type="DEFAULT_VEHTYPE" speed="0.00" pos="49.98" lane="VODUGES_beg_0" slope="0.00"/>
    </timestep>
    <timestep time="96.00">
        <vehicle id="stopped" x="49.98" y="-1.65" angle="90.00" type="DEFAULT_VEHTYPE" speed="0.00" pos="49.98" lane="VODUGES_beg_0" slope="0.00"/>
    </timestep>
    <timestep time="97.00">
        <vehicle id="stopped" x="49.98" y="-1.65" angle="90.00" type="DEFAULT_VEHTYPE" speed="0.00" pos="49.98" lane="VODUGES_beg_0" slope="0.00"/>
    </timestep>
    <timestep time="98.00">
        <vehicle id="stopped" x="49.98" y="-1.65" angle="90.00" type="DEFAULT_VEHTYPE" speed="0.00" pos="49.98" lane="VODUGES_beg_0" slope="0.00"/>
    </timestep>
    <timestep time="99.00">
        <vehicle id="stopped" x="49.98" y="-1.65" angle="90.00" type="DEFAULT_VEHTYPE" speed="0.00" pos="49.98" lane="VODUGES_beg_0" slope="0.00"/>
    </timestep>
    <timestep time="100.00">
        <vehicle id="stopped" x="49.98" y="-1.65" angle="90.00" type="DEFAULT_VEHTYPE" speed="0.00" pos="49.98" lane="VODUGES_beg_0" slope="0.00"/>
    </timestep>
    <timestep time="101.00">
        <vehicle id="stopped" x="49.98" y="-1.65" angle="90.00" type="DEFAULT_VEHTYPE" speed="0.00" pos="49.98" lane="VODUGES_beg_0" slope="0.00"/>
    </timestep>
    <timestep time="102.00">
        <vehicle id="stopped" x="49.98" y="-1.65" angle="90.00" type="DEFAULT_VEHTYPE" speed="0.00" pos="49.98" lane="VODUGES_beg_0" slope="0.00"/>
    </timestep>
    <timestep time="103.00">
        <vehicle id="stopped" x="49.98" y="-1.65" angle="90.00" type="DEFAULT_VEHTYPE" speed="0.00" pos="49.98" lane="VODUGES_beg_0" slope="0.00"/>
    </timestep>
    <timestep time="104.00">
        <vehicle id="stopped" x="49.98" y="-1.65" angle="90.00" type="DEFAULT_VEHTYPE" speed="0.00" pos="49.98" lane="VODUGES_beg_0" slope="0.00"/>
    </timestep>
    <timestep time="105.00">
        <vehicle id="stopped" x="49.98" y="-1.65" angle="90.00" type="DEFAULT_VEHTYPE" speed="0.00" pos="49.98" lane="VODUGES_beg_0" slope="0.00"/>
    </timestep>
    <timestep time="106.00">
        <vehicle id="stopped" x="49.98" y="-1.65" angle="90.00" type="DEFAULT_VEHTYPE" speed="0.00" pos="49.98" lane="VODUGES_beg_0" slope="0.00"/>
    </timestep>
    <timestep time="107.00">
        <vehicle id="stopped" x="49.98" y="-1.65" angle="90.00" type="DEFAULT_VEHTYPE" speed="0.00" pos="49.98" lane="VODUGES_beg_0" slope="0.00"/>
    </timestep>
    <timestep time="108.00">
        <vehicle id="stopped" x="51.89" y="-1.65" angle="90.00" type="DEFAULT_VEHTYPE" speed="1.91" pos="51.89" lane="VODUGES_beg_0" slope="0.00"/>
    </timestep>