<?xml version="1.0" encoding="UTF-8"?>

<!-- generated on Mon Nov 12 14:33:54 2018 by Eclipse SUMO Version v1_0_1+0617-70ae16b
This data file and the accompanying materials
are made available under the terms of the Eclipse Public License v2.0
which accompanies this distribution, and is available at
http://www.eclipse.org/legal/epl-v20.html
SPDX-License-Identifier: EPL-2.0
<configuration xmlns:xsi="http://www.w3.org/2001/XMLSchema-instance" xsi:noNamespaceSchemaLocation="http://sumo.dlr.de/xsd/sumoConfiguration.xsd">

    <input>
        <net-file value="net2.net.xml"/>
        <route-files value="input_routes.rou.xml"/>
    </input>

    <output>
        <write-license value="true"/>
        <fcd-output value="fcd.xml"/>
        <tripinfo-output value="tripinfos.xml"/>
    </output>

    <processing>
        <default.speeddev value="0"/>
    </processing>

    <report>
        <xml-validation value="never"/>
        <no-step-log value="true"/>
    </report>

</configuration>
-->

<fcd-export xmlns:xsi="http://www.w3.org/2001/XMLSchema-instance" xsi:noNamespaceSchemaLocation="http://sumo.dlr.de/xsd/fcd_file.xsd">
    <timestep time="0.00"/>
    <timestep time="1.00"/>
    <timestep time="2.00">
        <vehicle id="oncoming1" x="48.40" y="60.00" angle="180.00" type="DEFAULT_VEHTYPE" speed="0.00" pos="40.00" lane="NC_0" slope="0.00"/>
        <vehicle id="oncoming2" x="48.40" y="80.00" angle="180.00" type="DEFAULT_VEHTYPE" speed="0.00" pos="20.00" lane="NC_0" slope="0.00"/>
        <vehicle id="oncoming3" x="48.40" y="100.00" angle="180.00" type="DEFAULT_VEHTYPE" speed="0.00" pos="0.00" lane="NC_0" slope="0.00"/>
        <vehicle id="stopped2" x="40.00" y="-1.60" angle="90.00" type="DEFAULT_VEHTYPE" speed="0.00" pos="40.00" lane="VODUGES_beg_0" slope="0.00"/>
    </timestep>
    <timestep time="3.00">
        <vehicle id="oncoming1" x="48.40" y="58.04" angle="180.00" type="DEFAULT_VEHTYPE" speed="1.96" pos="41.96" lane="NC_0" slope="0.00"/>
        <vehicle id="oncoming2" x="48.40" y="77.52" angle="180.00" type="DEFAULT_VEHTYPE" speed="2.48" pos="22.48" lane="NC_0" slope="0.00"/>
        <vehicle id="oncoming3" x="48.40" y="98.62" angle="180.00" type="DEFAULT_VEHTYPE" speed="1.38" pos="1.38" lane="NC_0" slope="0.00"/>
        <vehicle id="stopped2" x="42.20" y="-1.60" angle="90.00" type="DEFAULT_VEHTYPE" speed="2.20" pos="42.20" lane="VODUGES_beg_0" slope="0.00"/>
    </timestep>
    <timestep time="4.00">
        <vehicle id="oncoming1" x="48.40" y="53.70" angle="180.00" type="DEFAULT_VEHTYPE" speed="4.34" pos="46.30" lane="NC_0" slope="0.00"/>
        <vehicle id="oncoming2" x="48.40" y="73.59" angle="180.00" type="DEFAULT_VEHTYPE" speed="3.93" pos="26.41" lane="NC_0" slope="0.00"/>
        <vehicle id="oncoming3" x="48.40" y="95.83" angle="180.00" type="DEFAULT_VEHTYPE" speed="2.79" pos="4.17" lane="NC_0" slope="0.00"/>
        <vehicle id="overtaking" x="0.00" y="-1.60" angle="90.00" type="DEFAULT_VEHTYPE" speed="0.00" pos="0.00" lane="VODUGES_beg_0" slope="0.00"/>
        <vehicle id="stopped2" x="44.41" y="-1.60" angle="90.00" type="DEFAULT_VEHTYPE" speed="2.21" pos="44.41" lane="VODUGES_beg_0" slope="0.00"/>
    </timestep>
    <timestep time="5.00">
        <vehicle id="oncoming1" x="48.40" y="47.29" angle="180.00" type="DEFAULT_VEHTYPE" speed="6.41" pos="52.71" lane="NC_0" slope="0.00"/>
        <vehicle id="oncoming2" x="48.40" y="68.12" angle="180.00" type="DEFAULT_VEHTYPE" speed="5.48" pos="31.88" lane="NC_0" slope="0.00"/>
        <vehicle id="oncoming3" x="48.40" y="90.45" angle="180.00" type="DEFAULT_VEHTYPE" speed="5.38" pos="9.55" lane="NC_0" slope="0.00"/>
        <vehicle id="overtaking" x="2.18" y="-1.60" angle="90.00" type="DEFAULT_VEHTYPE" speed="2.18" pos="2.18" lane="VODUGES_beg_0" slope="0.00"/>
        <vehicle id="stopped2" x="45.00" y="-1.60" angle="90.00" type="DEFAULT_VEHTYPE" speed="0.58" pos="45.00" lane="VODUGES_beg_0" slope="0.00"/>
    </timestep>
    <timestep time="6.00">
        <vehicle id="oncoming1" x="48.40" y="38.83" angle="180.00" type="DEFAULT_VEHTYPE" speed="8.45" pos="61.17" lane="NC_0" slope="0.00"/>
        <vehicle id="oncoming2" x="48.40" y="61.23" angle="180.00" type="DEFAULT_VEHTYPE" speed="6.88" pos="38.77" lane="NC_0" slope="0.00"/>
        <vehicle id="oncoming3" x="48.40" y="83.32" angle="180.00" type="DEFAULT_VEHTYPE" speed="7.12" pos="16.68" lane="NC_0" slope="0.00"/>
        <vehicle id="overtaking" x="6.65" y="1.60" angle="90.00" type="DEFAULT_VEHTYPE" speed="4.48" pos="38.65" lane="-VODUGES_beg_0" slope="0.00"/>
        <vehicle id="stopped2" x="45.00" y="-1.60" angle="90.00" type="DEFAULT_VEHTYPE" speed="0.00" pos="45.00" lane="VODUGES_beg_0" slope="0.00"/>
    </timestep>
    <timestep time="7.00">
        <vehicle id="oncoming1" x="48.40" y="27.79" angle="180.00" type="DEFAULT_VEHTYPE" speed="11.04" pos="72.21" lane="NC_0" slope="0.00"/>
        <vehicle id="oncoming2" x="48.40" y="52.34" angle="180.00" type="DEFAULT_VEHTYPE" speed="8.89" pos="47.66" lane="NC_0" slope="0.00"/>
        <vehicle id="oncoming3" x="48.40" y="73.71" angle="180.00" type="DEFAULT_VEHTYPE" speed="9.61" pos="26.29" lane="NC_0" slope="0.00"/>
        <vehicle id="overtaking" x="12.53" y="1.60" angle="90.00" type="DEFAULT_VEHTYPE" speed="5.88" pos="32.77" lane="-VODUGES_beg_0" slope="0.00"/>
        <vehicle id="stopped2" x="45.00" y="-1.60" angle="90.00" type="DEFAULT_VEHTYPE" speed="0.00" pos="45.00" lane="VODUGES_beg_0" slope="0.00"/>
    </timestep>
    <timestep time="8.00">
        <vehicle id="oncoming1" x="48.40" y="15.75" angle="180.00" type="DEFAULT_VEHTYPE" speed="12.04" pos="84.25" lane="NC_0" slope="0.00"/>
        <vehicle id="oncoming2" x="48.40" y="41.70" angle="180.00" type="DEFAULT_VEHTYPE" speed="10.64" pos="58.30" lane="NC_0" slope="0.00"/>
        <vehicle id="oncoming3" x="48.40" y="63.94" angle="180.00" type="DEFAULT_VEHTYPE" speed="9.77" pos="36.06" lane="NC_0" slope="0.00"/>
        <vehicle id="overtaking" x="20.45" y="1.60" angle="90.00" type="DEFAULT_VEHTYPE" speed="7.92" pos="24.85" lane="-VODUGES_beg_0" slope="0.00"/>
        <vehicle id="stopped2" x="45.00" y="-1.60" angle="90.00" type="DEFAULT_VEHTYPE" speed="0.00" pos="45.00" lane="VODUGES_beg_0" slope="0.00"/>
    </timestep>
    <timestep time="9.00">
        <vehicle id="oncoming1" x="48.40" y="8.21" angle="180.00" type="DEFAULT_VEHTYPE" speed="7.54" pos="91.79" lane="NC_0" slope="0.00"/>
        <vehicle id="oncoming2" x="48.40" y="28.71" angle="180.00" type="DEFAULT_VEHTYPE" speed="12.99" pos="71.29" lane="NC_0" slope="0.00"/>
        <vehicle id="oncoming3" x="48.40" y="52.71" angle="180.00" type="DEFAULT_VEHTYPE" speed="11.23" pos="47.29" lane="NC_0" slope="0.00"/>
        <vehicle id="overtaking" x="30.01" y="1.60" angle="90.00" type="DEFAULT_VEHTYPE" speed="9.56" pos="15.29" lane="-VODUGES_beg_0" slope="0.00"/>
        <vehicle id="stopped2" x="45.00" y="-1.60" angle="90.00" type="DEFAULT_VEHTYPE" speed="0.00" pos="45.00" lane="VODUGES_beg_0" slope="0.00"/>
    </timestep>
    <timestep time="10.00">
        <vehicle id="oncoming1" x="48.40" y="5.10" angle="180.00" type="DEFAULT_VEHTYPE" speed="3.11" pos="94.90" lane="NC_0" slope="0.00"/>
        <vehicle id="oncoming2" x="48.40" y="18.97" angle="180.00" type="DEFAULT_VEHTYPE" speed="9.74" pos="81.03" lane="NC_0" slope="0.00"/>
        <vehicle id="oncoming3" x="48.40" y="39.97" angle="180.00" type="DEFAULT_VEHTYPE" speed="12.73" pos="60.03" lane="NC_0" slope="0.00"/>
        <vehicle id="overtaking" x="41.72" y="1.60" angle="90.00" type="DEFAULT_VEHTYPE" speed="11.71" pos="3.58" lane="-VODUGES_beg_0" slope="0.00"/>
        <vehicle id="stopped2" x="45.00" y="-1.60" angle="90.00" type="DEFAULT_VEHTYPE" speed="0.00" pos="45.00" lane="VODUGES_beg_0" slope="0.00"/>
    </timestep>
    <timestep time="11.00">
        <vehicle id="oncoming1" x="48.40" y="4.93" angle="180.00" type="DEFAULT_VEHTYPE" speed="0.17" pos="95.07" lane="NC_0" slope="0.00"/>
        <vehicle id="oncoming2" x="48.40" y="13.73" angle="180.00" type="DEFAULT_VEHTYPE" speed="5.24" pos="86.27" lane="NC_0" slope="0.00"/>
        <vehicle id="oncoming3" x="48.40" y="29.94" angle="180.00" type="DEFAULT_VEHTYPE" speed="10.03" pos="70.06" lane="NC_0" slope="0.00"/>
        <vehicle id="overtaking" x="55.40" y="-1.60" angle="90.00" type="DEFAULT_VEHTYPE" speed="13.67" pos="0.70" lane="VODUGES_end_0" slope="0.00"/>
        <vehicle id="stopped2" x="45.00" y="-1.60" angle="90.00" type="DEFAULT_VEHTYPE" speed="0.00" pos="45.00" lane="VODUGES_beg_0" slope="0.00"/>
    </timestep>
    <timestep time="12.00">
        <vehicle id="oncoming1" x="48.58" y="3.43" angle="177.94" type="DEFAULT_VEHTYPE" speed="1.51" pos="1.28" lane=":C_1_0" slope="0.00"/>
        <vehicle id="oncoming2" x="48.40" y="12.63" angle="180.00" type="DEFAULT_VEHTYPE" speed="1.10" pos="87.37" lane="NC_0" slope="0.00"/>
        <vehicle id="oncoming3" x="48.40" y="23.42" angle="180.00" type="DEFAULT_VEHTYPE" speed="6.52" pos="76.58" lane="NC_0" slope="0.00"/>
        <vehicle id="overtaking" x="68.06" y="-1.60" angle="90.00" type="DEFAULT_VEHTYPE" speed="12.67" pos="13.36" lane="VODUGES_end_0" slope="0.00"/>
        <vehicle id="stopped2" x="45.00" y="-1.60" angle="90.00" type="DEFAULT_VEHTYPE" speed="0.00" pos="45.00" lane="VODUGES_beg_0" slope="0.00"/>
    </timestep>
    <timestep time="13.00">
        <vehicle id="oncoming1" x="50.24" y="-0.19" angle="158.43" type="DEFAULT_VEHTYPE" speed="4.11" pos="5.39" lane=":C_1_0" slope="0.00"/>
        <vehicle id="oncoming2" x="48.40" y="11.07" angle="180.00" type="DEFAULT_VEHTYPE" speed="1.56" pos="88.93" lane="NC_0" slope="0.00"/>
        <vehicle id="oncoming3" x="48.40" y="21.08" angle="180.00" type="DEFAULT_VEHTYPE" speed="2.34" pos="78.92" lane="NC_0" slope="0.00"/>
        <vehicle id="overtaking" x="81.87" y="-1.60" angle="90.00" type="DEFAULT_VEHTYPE" speed="13.81" pos="27.17" lane="VODUGES_end_0" slope="0.00"/>
        <vehicle id="stopped2" x="45.00" y="-1.60" angle="90.00" type="DEFAULT_VEHTYPE" speed="0.00" pos="45.00" lane="VODUGES_beg_0" slope="0.00"/>
    </timestep>
    <timestep time="14.00">
        <vehicle id="oncoming1" x="56.23" y="-1.60" angle="98.64" type="DEFAULT_VEHTYPE" speed="6.30" pos="1.53" lane="VODUGES_end_0" slope="0.00"/>
        <vehicle id="oncoming2" x="48.40" y="8.07" angle="180.00" type="DEFAULT_VEHTYPE" speed="3.00" pos="91.93" lane="NC_0" slope="0.00"/>
        <vehicle id="oncoming3" x="48.40" y="19.24" angle="180.00" type="DEFAULT_VEHTYPE" speed="1.84" pos="80.76" lane="NC_0" slope="0.00"/>
        <vehicle id="overtaking" x="95.51" y="-1.60" angle="90.00" type="DEFAULT_VEHTYPE" speed="13.64" pos="40.81" lane="VODUGES_end_0" slope="0.00"/>
        <vehicle id="stopped2" x="45.00" y="-1.60" angle="90.00" type="DEFAULT_VEHTYPE" speed="0.00" pos="45.00" lane="VODUGES_beg_0" slope="0.00"/>
    </timestep>
    <timestep time="15.00">
        <vehicle id="oncoming1" x="63.90" y="-1.60" angle="90.00" type="DEFAULT_VEHTYPE" speed="7.67" pos="9.20" lane="VODUGES_end_0" slope="0.00"/>
        <vehicle id="oncoming2" x="48.68" y="2.69" angle="176.73" type="DEFAULT_VEHTYPE" speed="5.40" pos="2.03" lane=":C_1_0" slope="0.00"/>
        <vehicle id="oncoming3" x="48.40" y="16.01" angle="180.00" type="DEFAULT_VEHTYPE" speed="3.23" pos="83.99" lane="NC_0" slope="0.00"/>
        <vehicle id="overtaking" x="109.01" y="-1.60" angle="90.00" type="DEFAULT_VEHTYPE" speed="13.50" pos="54.31" lane="VODUGES_end_0" slope="0.00"/>
        <vehicle id="stopped2" x="45.00" y="-1.60" angle="90.00" type="DEFAULT_VEHTYPE" speed="0.00" pos="45.00" lane="VODUGES_beg_0" slope="0.00"/>
    </timestep>
    <timestep time="16.00">
        <vehicle id="oncoming1" x="73.27" y="-1.60" angle="90.00" type="DEFAULT_VEHTYPE" speed="9.37" pos="18.57" lane="VODUGES_end_0" slope="0.00"/>
        <vehicle id="oncoming2" x="53.67" y="-1.45" angle="118.22" type="DEFAULT_VEHTYPE" speed="7.09" pos="9.12" lane=":C_1_0" slope="0.00"/>
        <vehicle id="oncoming3" x="48.40" y="11.30" angle="180.00" type="DEFAULT_VEHTYPE" speed="4.71" pos="88.70" lane="NC_0" slope="0.00"/>
        <vehicle id="overtaking" x="122.64" y="-1.60" angle="90.00" type="DEFAULT_VEHTYPE" speed="13.62" pos="67.94" lane="VODUGES_end_0" slope="0.00"/>
        <vehicle id="stopped2" x="45.00" y="-1.60" angle="90.00" type="DEFAULT_VEHTYPE" speed="0.00" pos="45.00" lane="VODUGES_beg_0" slope="0.00"/>
    </timestep>
    <timestep time="17.00">
        <vehicle id="oncoming1" x="84.39" y="-1.60" angle="90.00" type="DEFAULT_VEHTYPE" speed="11.12" pos="29.69" lane="VODUGES_end_0" slope="0.00"/>
        <vehicle id="oncoming2" x="62.49" y="-1.60" angle="90.00" type="DEFAULT_VEHTYPE" speed="8.83" pos="7.79" lane="VODUGES_end_0" slope="0.00"/>
        <vehicle id="oncoming3" x="48.40" y="6.25" angle="180.00" type="DEFAULT_VEHTYPE" speed="5.05" pos="93.75" lane="NC_0" slope="0.00"/>
        <vehicle id="overtaking" x="135.93" y="-1.60" angle="90.00" type="DEFAULT_VEHTYPE" speed="13.29" pos="81.23" lane="VODUGES_end_0" slope="0.00"/>
        <vehicle id="stopped2" x="45.00" y="-1.60" angle="90.00" type="DEFAULT_VEHTYPE" speed="0.00" pos="45.00" lane="VODUGES_beg_0" slope="0.00"/>
    </timestep>
    <timestep time="18.00">
        <vehicle id="oncoming1" x="97.72" y="-1.60" angle="90.00" type="DEFAULT_VEHTYPE" speed="13.33" pos="43.02" lane="VODUGES_end_0" slope="0.00"/>
        <vehicle id="oncoming2" x="73.22" y="-1.60" angle="90.00" type="DEFAULT_VEHTYPE" speed="10.73" pos="18.52" lane="VODUGES_end_0" slope="0.00"/>
        <vehicle id="oncoming3" x="50.33" y="-0.25" angle="157.26" type="DEFAULT_VEHTYPE" speed="7.05" pos="5.51" lane=":C_1_0" slope="0.00"/>
        <vehicle id="overtaking" x="149.76" y="-1.60" angle="90.00" type="DEFAULT_VEHTYPE" speed="13.83" pos="95.06" lane="VODUGES_end_0" slope="0.00"/>
        <vehicle id="stopped2" x="45.00" y="-1.60" angle="90.00" type="DEFAULT_VEHTYPE" speed="0.00" pos="45.00" lane="VODUGES_beg_0" slope="0.00"/>
    </timestep>
    <timestep time="19.00">
        <vehicle id="oncoming1" x="111.35" y="-1.60" angle="90.00" type="DEFAULT_VEHTYPE" speed="13.63" pos="56.65" lane="VODUGES_end_0" slope="0.00"/>
        <vehicle id="oncoming2" x="86.14" y="-1.60" angle="90.00" type="DEFAULT_VEHTYPE" speed="12.92" pos="31.44" lane="VODUGES_end_0" slope="0.00"/>
        <vehicle id="oncoming3" x="58.81" y="-1.60" angle="91.43" type="DEFAULT_VEHTYPE" speed="8.76" pos="4.11" lane="VODUGES_end_0" slope="0.00"/>
        <vehicle id="overtaking" x="162.77" y="-1.60" angle="90.00" type="DEFAULT_VEHTYPE" speed="13.01" pos="108.07" lane="VODUGES_end_0" slope="0.00"/>
        <vehicle id="stopped2" x="45.00" y="-1.60" angle="90.00" type="DEFAULT_VEHTYPE" speed="0.00" pos="45.00" lane="VODUGES_beg_0" slope="0.00"/>
    </timestep>
    <timestep time="20.00">
        <vehicle id="oncoming1" x="125.15" y="-1.60" angle="90.00" type="DEFAULT_VEHTYPE" speed="13.80" pos="70.45" lane="VODUGES_end_0" slope="0.00"/>
        <vehicle id="oncoming2" x="98.76" y="-1.60" angle="90.00" type="DEFAULT_VEHTYPE" speed="12.62" pos="44.06" lane="VODUGES_end_0" slope="0.00"/>
        <vehicle id="oncoming3" x="70.17" y="-1.60" angle="90.00" type="DEFAULT_VEHTYPE" speed="11.36" pos="15.47" lane="VODUGES_end_0" slope="0.00"/>
        <vehicle id="overtaking" x="176.27" y="-1.60" angle="90.00" type="DEFAULT_VEHTYPE" speed="13.50" pos="121.57" lane="VODUGES_end_0" slope="0.00"/>
        <vehicle id="stopped2" x="45.00" y="-1.60" angle="90.00" type="DEFAULT_VEHTYPE" speed="0.00" pos="45.00" lane="VODUGES_beg_0" slope="0.00"/>
    </timestep>
    <timestep time="21.00">
        <vehicle id="oncoming1" x="138.17" y="-1.60" angle="90.00" type="DEFAULT_VEHTYPE" speed="13.02" pos="83.47" lane="VODUGES_end_0" slope="0.00"/>
        <vehicle id="oncoming2" x="112.09" y="-1.60" angle="90.00" type="DEFAULT_VEHTYPE" speed="13.33" pos="57.39" lane="VODUGES_end_0" slope="0.00"/>
        <vehicle id="oncoming3" x="82.88" y="-1.60" angle="90.00" type="DEFAULT_VEHTYPE" speed="12.72" pos="28.18" lane="VODUGES_end_0" slope="0.00"/>
        <vehicle id="overtaking" x="188.92" y="-1.60" angle="90.00" type="DEFAULT_VEHTYPE" speed="12.65" pos="134.22" lane="VODUGES_end_0" slope="0.00"/>
        <vehicle id="stopped2" x="45.00" y="-1.60" angle="90.00" type="DEFAULT_VEHTYPE" speed="0.00" pos="45.00" lane="VODUGES_beg_0" slope="0.00"/>
    </timestep>
    <timestep time="22.00">
        <vehicle id="oncoming1" x="151.97" y="-1.60" angle="90.00" type="DEFAULT_VEHTYPE" speed="13.81" pos="97.27" lane="VODUGES_end_0" slope="0.00"/>
        <vehicle id="oncoming2" x="124.99" y="-1.60" angle="90.00" type="DEFAULT_VEHTYPE" speed="12.90" pos="70.29" lane="VODUGES_end_0" slope="0.00"/>
        <vehicle id="oncoming3" x="95.95" y="-1.60" angle="90.00" type="DEFAULT_VEHTYPE" speed="13.07" pos="41.25" lane="VODUGES_end_0" slope="0.00"/>
        <vehicle id="stopped2" x="45.00" y="-1.60" angle="90.00" type="DEFAULT_VEHTYPE" speed="0.00" pos="45.00" lane="VODUGES_beg_0" slope="0.00"/>
    </timestep>
    <timestep time="23.00">
        <vehicle id="oncoming1" x="165.58" y="-1.60" angle="90.00" type="DEFAULT_VEHTYPE" speed="13.61" pos="110.88" lane="VODUGES_end_0" slope="0.00"/>
        <vehicle id="oncoming2" x="138.42" y="-1.60" angle="90.00" type="DEFAULT_VEHTYPE" speed="13.43" pos="83.72" lane="VODUGES_end_0" slope="0.00"/>
        <vehicle id="oncoming3" x="109.78" y="-1.60" angle="90.00" type="DEFAULT_VEHTYPE" speed="13.83" pos="55.08" lane="VODUGES_end_0" slope="0.00"/>
        <vehicle id="stopped2" x="45.00" y="-1.60" angle="90.00" type="DEFAULT_VEHTYPE" speed="0.00" pos="45.00" lane="VODUGES_beg_0" slope="0.00"/>
    </timestep>
    <timestep time="24.00">
        <vehicle id="oncoming1" x="179.06" y="-1.60" angle="90.00" type="DEFAULT_VEHTYPE" speed="13.48" pos="124.36" lane="VODUGES_end_0" slope="0.00"/>
        <vehicle id="oncoming2" x="151.54" y="-1.60" angle="90.00" type="DEFAULT_VEHTYPE" speed="13.12" pos="96.84" lane="VODUGES_end_0" slope="0.00"/>
        <vehicle id="oncoming3" x="122.70" y="-1.60" angle="90.00" type="DEFAULT_VEHTYPE" speed="12.92" pos="68.00" lane="VODUGES_end_0" slope="0.00"/>
        <vehicle id="stopped2" x="45.00" y="-1.60" angle="90.00" type="DEFAULT_VEHTYPE" speed="0.00" pos="45.00" lane="VODUGES_beg_0" slope="0.00"/>
    </timestep>
    <timestep time="25.00">
        <vehicle id="oncoming1" x="191.81" y="-1.60" angle="90.00" type="DEFAULT_VEHTYPE" speed="12.75" pos="137.11" lane="VODUGES_end_0" slope="0.00"/>
        <vehicle id="oncoming2" x="164.67" y="-1.60" angle="90.00" type="DEFAULT_VEHTYPE" speed="13.13" pos="109.97" lane="VODUGES_end_0" slope="0.00"/>
        <vehicle id="oncoming3" x="135.70" y="-1.60" angle="90.00" type="DEFAULT_VEHTYPE" speed="13.00" pos="81.00" lane="VODUGES_end_0" slope="0.00"/>
        <vehicle id="stopped2" x="45.00" y="-1.60" angle="90.00" type="DEFAULT_VEHTYPE" speed="0.00" pos="45.00" lane="VODUGES_beg_0" slope="0.00"/>
    </timestep>
    <timestep time="26.00">
        <vehicle id="oncoming2" x="178.03" y="-1.60" angle="90.00" type="DEFAULT_VEHTYPE" speed="13.35" pos="123.33" lane="VODUGES_end_0" slope="0.00"/>
        <vehicle id="oncoming3" x="148.83" y="-1.60" angle="90.00" type="DEFAULT_VEHTYPE" speed="13.14" pos="94.13" lane="VODUGES_end_0" slope="0.00"/>
        <vehicle id="stopped2" x="45.00" y="-1.60" angle="90.00" type="DEFAULT_VEHTYPE" speed="0.00" pos="45.00" lane="VODUGES_beg_0" slope="0.00"/>
    </timestep>
    <timestep time="27.00">
        <vehicle id="oncoming2" x="190.80" y="-1.60" angle="90.00" type="DEFAULT_VEHTYPE" speed="12.78" pos="136.10" lane="VODUGES_end_0" slope="0.00"/>
        <vehicle id="oncoming3" x="161.59" y="-1.60" angle="90.00" type="DEFAULT_VEHTYPE" speed="12.76" pos="106.89" lane="VODUGES_end_0" slope="0.00"/>
        <vehicle id="stopped2" x="45.00" y="-1.60" angle="90.00" type="DEFAULT_VEHTYPE" speed="0.00" pos="45.00" lane="VODUGES_beg_0" slope="0.00"/>
    </timestep>
    <timestep time="28.00">
        <vehicle id="oncoming3" x="175.48" y="-1.60" angle="90.00" type="DEFAULT_VEHTYPE" speed="13.89" pos="120.78" lane="VODUGES_end_0" slope="0.00"/>
        <vehicle id="stopped2" x="45.00" y="-1.60" angle="90.00" type="DEFAULT_VEHTYPE" speed="0.00" pos="45.00" lane="VODUGES_beg_0" slope="0.00"/>
    </timestep>
    <timestep time="29.00">
        <vehicle id="oncoming3" x="189.14" y="-1.60" angle="90.00" type="DEFAULT_VEHTYPE" speed="13.66" pos="134.44" lane="VODUGES_end_0" slope="0.00"/>
        <vehicle id="stopped2" x="45.00" y="-1.60" angle="90.00" type="DEFAULT_VEHTYPE" speed="0.00" pos="45.00" lane="VODUGES_beg_0" slope="0.00"/>
    </timestep>
    <timestep time="30.00">
        <vehicle id="stopped2" x="45.00" y="-1.60" angle="90.00" type="DEFAULT_VEHTYPE" speed="0.00" pos="45.00" lane="VODUGES_beg_0" slope="0.00"/>
    </timestep>
    <timestep time="31.00">
        <vehicle id="stopped2" x="45.00" y="-1.60" angle="90.00" type="DEFAULT_VEHTYPE" speed="0.00" pos="45.00" lane="VODUGES_beg_0" slope="0.00"/>
    </timestep>
    <timestep time="32.00">
        <vehicle id="stopped2" x="45.00" y="-1.60" angle="90.00" type="DEFAULT_VEHTYPE" speed="0.00" pos="45.00" lane="VODUGES_beg_0" slope="0.00"/>
    </timestep>
    <timestep time="33.00">
        <vehicle id="stopped2" x="45.00" y="-1.60" angle="90.00" type="DEFAULT_VEHTYPE" speed="0.00" pos="45.00" lane="VODUGES_beg_0" slope="0.00"/>
    </timestep>
    <timestep time="34.00">
        <vehicle id="stopped2" x="45.00" y="-1.60" angle="90.00" type="DEFAULT_VEHTYPE" speed="0.00" pos="45.00" lane="VODUGES_beg_0" slope="0.00"/>
    </timestep>
    <timestep time="35.00">
        <vehicle id="stopped2" x="45.00" y="-1.60" angle="90.00" type="DEFAULT_VEHTYPE" speed="0.00" pos="45.00" lane="VODUGES_beg_0" slope="0.00"/>
    </timestep>
    <timestep time="36.00">
        <vehicle id="stopped2" x="45.00" y="-1.60" angle="90.00" type="DEFAULT_VEHTYPE" speed="0.00" pos="45.00" lane="VODUGES_beg_0" slope="0.00"/>
    </timestep>
    <timestep time="37.00">
        <vehicle id="stopped2" x="45.00" y="-1.60" angle="90.00" type="DEFAULT_VEHTYPE" speed="0.00" pos="45.00" lane="VODUGES_beg_0" slope="0.00"/>
    </timestep>
    <timestep time="38.00">
        <vehicle id="stopped2" x="45.00" y="-1.60" angle="90.00" type="DEFAULT_VEHTYPE" speed="0.00" pos="45.00" lane="VODUGES_beg_0" slope="0.00"/>
    </timestep>
    <timestep time="39.00">
        <vehicle id="stopped2" x="45.00" y="-1.60" angle="90.00" type="DEFAULT_VEHTYPE" speed="0.00" pos="45.00" lane="VODUGES_beg_0" slope="0.00"/>
    </timestep>
    <timestep time="40.00">
        <vehicle id="stopped2" x="45.00" y="-1.60" angle="90.00" type="DEFAULT_VEHTYPE" speed="0.00" pos="45.00" lane="VODUGES_beg_0" slope="0.00"/>
    </timestep>
    <timestep time="41.00">
        <vehicle id="stopped2" x="45.00" y="-1.60" angle="90.00" type="DEFAULT_VEHTYPE" speed="0.00" pos="45.00" lane="VODUGES_beg_0" slope="0.00"/>
    </timestep>
    <timestep time="42.00">
        <vehicle id="stopped2" x="45.00" y="-1.60" angle="90.00" type="DEFAULT_VEHTYPE" speed="0.00" pos="45.00" lane="VODUGES_beg_0" slope="0.00"/>
    </timestep>
    <timestep time="43.00">
        <vehicle id="stopped2" x="45.00" y="-1.60" angle="90.00" type="DEFAULT_VEHTYPE" speed="0.00" pos="45.00" lane="VODUGES_beg_0" slope="0.00"/>
    </timestep>
    <timestep time="44.00">
        <vehicle id="stopped2" x="45.00" y="-1.60" angle="90.00" type="DEFAULT_VEHTYPE" speed="0.00" pos="45.00" lane="VODUGES_beg_0" slope="0.00"/>
    </timestep>
    <timestep time="45.00">
        <vehicle id="stopped2" x="45.00" y="-1.60" angle="90.00" type="DEFAULT_VEHTYPE" speed="0.00" pos="45.00" lane="VODUGES_beg_0" slope="0.00"/>
    </timestep>
    <timestep time="46.00">
        <vehicle id="stopped2" x="45.00" y="-1.60" angle="90.00" type="DEFAULT_VEHTYPE" speed="0.00" pos="45.00" lane="VODUGES_beg_0" slope="0.00"/>
    </timestep>
    <timestep time="47.00">
        <vehicle id="stopped2" x="45.00" y="-1.60" angle="90.00" type="DEFAULT_VEHTYPE" speed="0.00" pos="45.00" lane="VODUGES_beg_0" slope="0.00"/>
    </timestep>
    <timestep time="48.00">
        <vehicle id="stopped2" x="45.00" y="-1.60" angle="90.00" type="DEFAULT_VEHTYPE" speed="0.00" pos="45.00" lane="VODUGES_beg_0" slope="0.00"/>
    </timestep>
    <timestep time="49.00">
        <vehicle id="stopped2" x="45.00" y="-1.60" angle="90.00" type="DEFAULT_VEHTYPE" speed="0.00" pos="45.00" lane="VODUGES_beg_0" slope="0.00"/>
    </timestep>
    <timestep time="50.00">
        <vehicle id="stopped2" x="45.00" y="-1.60" angle="90.00" type="DEFAULT_VEHTYPE" speed="0.00" pos="45.00" lane="VODUGES_beg_0" slope="0.00"/>
    </timestep>
    <timestep time="51.00">
        <vehicle id="stopped2" x="45.00" y="-1.60" angle="90.00" type="DEFAULT_VEHTYPE" speed="0.00" pos="45.00" lane="VODUGES_beg_0" slope="0.00"/>
    </timestep>
    <timestep time="52.00">
        <vehicle id="stopped2" x="45.00" y="-1.60" angle="90.00" type="DEFAULT_VEHTYPE" speed="0.00" pos="45.00" lane="VODUGES_beg_0" slope="0.00"/>
    </timestep>
    <timestep time="53.00">
        <vehicle id="stopped2" x="45.00" y="-1.60" angle="90.00" type="DEFAULT_VEHTYPE" speed="0.00" pos="45.00" lane="VODUGES_beg_0" slope="0.00"/>
    </timestep>
    <timestep time="54.00">
        <vehicle id="stopped2" x="45.00" y="-1.60" angle="90.00" type="DEFAULT_VEHTYPE" speed="0.00" pos="45.00" lane="VODUGES_beg_0" slope="0.00"/>
    </timestep>
    <timestep time="55.00">
        <vehicle id="stopped2" x="45.00" y="-1.60" angle="90.00" type="DEFAULT_VEHTYPE" speed="0.00" pos="45.00" lane="VODUGES_beg_0" slope="0.00"/>
    </timestep>
    <timestep time="56.00">
        <vehicle id="stopped2" x="45.00" y="-1.60" angle="90.00" type="DEFAULT_VEHTYPE" speed="0.00" pos="45.00" lane="VODUGES_beg_0" slope="0.00"/>
    </timestep>
    <timestep time="57.00">
        <vehicle id="stopped2" x="45.00" y="-1.60" angle="90.00" type="DEFAULT_VEHTYPE" speed="0.00" pos="45.00" lane="VODUGES_beg_0" slope="0.00"/>
    </timestep>
    <timestep time="58.00">
        <vehicle id="stopped2" x="45.00" y="-1.60" angle="90.00" type="DEFAULT_VEHTYPE" speed="0.00" pos="45.00" lane="VODUGES_beg_0" slope="0.00"/>
    </timestep>
    <timestep time="59.00">
        <vehicle id="stopped2" x="45.00" y="-1.60" angle="90.00" type="DEFAULT_VEHTYPE" speed="0.00" pos="45.00" lane="VODUGES_beg_0" slope="0.00"/>
    </timestep>
    <timestep time="60.00">
        <vehicle id="stopped2" x="45.00" y="-1.60" angle="90.00" type="DEFAULT_VEHTYPE" speed="0.00" pos="45.00" lane="VODUGES_beg_0" slope="0.00"/>
    </timestep>
    <timestep time="61.00">
        <vehicle id="stopped2" x="45.00" y="-1.60" angle="90.00" type="DEFAULT_VEHTYPE" speed="0.00" pos="45.00" lane="VODUGES_beg_0" slope="0.00"/>
    </timestep>
    <timestep time="62.00">
        <vehicle id="stopped2" x="45.00" y="-1.60" angle="90.00" type="DEFAULT_VEHTYPE" speed="0.00" pos="45.00" lane="VODUGES_beg_0" slope="0.00"/>
    </timestep>
    <timestep time="63.00">
        <vehicle id="stopped2" x="45.00" y="-1.60" angle="90.00" type="DEFAULT_VEHTYPE" speed="0.00" pos="45.00" lane="VODUGES_beg_0" slope="0.00"/>
    </timestep>
    <timestep time="64.00">
        <vehicle id="stopped2" x="45.00" y="-1.60" angle="90.00" type="DEFAULT_VEHTYPE" speed="0.00" pos="45.00" lane="VODUGES_beg_0" slope="0.00"/>
    </timestep>
    <timestep time="65.00">
        <vehicle id="stopped2" x="45.00" y="-1.60" angle="90.00" type="DEFAULT_VEHTYPE" speed="0.00" pos="45.00" lane="VODUGES_beg_0" slope="0.00"/>
    </timestep>
    <timestep time="66.00">
        <vehicle id="stopped2" x="45.00" y="-1.60" angle="90.00" type="DEFAULT_VEHTYPE" speed="0.00" pos="45.00" lane="VODUGES_beg_0" slope="0.00"/>
    </timestep>
    <timestep time="67.00">
        <vehicle id="stopped2" x="45.00" y="-1.60" angle="90.00" type="DEFAULT_VEHTYPE" speed="0.00" pos="45.00" lane="VODUGES_beg_0" slope="0.00"/>
    </timestep>
    <timestep time="68.00">
        <vehicle id="stopped2" x="45.00" y="-1.60" angle="90.00" type="DEFAULT_VEHTYPE" speed="0.00" pos="45.00" lane="VODUGES_beg_0" slope="0.00"/>
    </timestep>
    <timestep time="69.00">
        <vehicle id="stopped2" x="45.00" y="-1.60" angle="90.00" type="DEFAULT_VEHTYPE" speed="0.00" pos="45.00" lane="VODUGES_beg_0" slope="0.00"/>
    </timestep>
    <timestep time="70.00">
        <vehicle id="stopped2" x="45.00" y="-1.60" angle="90.00" type="DEFAULT_VEHTYPE" speed="0.00" pos="45.00" lane="VODUGES_beg_0" slope="0.00"/>
    </timestep>
    <timestep time="71.00">
        <vehicle id="stopped2" x="45.00" y="-1.60" angle="90.00" type="DEFAULT_VEHTYPE" speed="0.00" pos="45.00" lane="VODUGES_beg_0" slope="0.00"/>
    </timestep>
    <timestep time="72.00">
        <vehicle id="stopped2" x="45.00" y="-1.60" angle="90.00" type="DEFAULT_VEHTYPE" speed="0.00" pos="45.00" lane="VODUGES_beg_0" slope="0.00"/>
    </timestep>
    <timestep time="73.00">
        <vehicle id="stopped2" x="45.00" y="-1.60" angle="90.00" type="DEFAULT_VEHTYPE" speed="0.00" pos="45.00" lane="VODUGES_beg_0" slope="0.00"/>
    </timestep>
    <timestep time="74.00">
        <vehicle id="stopped2" x="45.00" y="-1.60" angle="90.00" type="DEFAULT_VEHTYPE" speed="0.00" pos="45.00" lane="VODUGES_beg_0" slope="0.00"/>
    </timestep>
    <timestep time="75.00">
        <vehicle id="stopped2" x="45.00" y="-1.60" angle="90.00" type="DEFAULT_VEHTYPE" speed="0.00" pos="45.00" lane="VODUGES_beg_0" slope="0.00"/>
    </timestep>
    <timestep time="76.00">
        <vehicle id="stopped2" x="45.00" y="-1.60" angle="90.00" type="DEFAULT_VEHTYPE" speed="0.00" pos="45.00" lane="VODUGES_beg_0" slope="0.00"/>
    </timestep>
    <timestep time="77.00">
        <vehicle id="stopped2" x="45.00" y="-1.60" angle="90.00" type="DEFAULT_VEHTYPE" speed="0.00" pos="45.00" lane="VODUGES_beg_0" slope="0.00"/>
    </timestep>