<?xml version="1.0" encoding="UTF-8"?>

<!-- generated on Mon Nov 12 14:33:53 2018 by Eclipse SUMO Version v1_0_1+0617-70ae16b
This data file and the accompanying materials
are made available under the terms of the Eclipse Public License v2.0
which accompanies this distribution, and is available at
http://www.eclipse.org/legal/epl-v20.html
SPDX-License-Identifier: EPL-2.0
<configuration xmlns:xsi="http://www.w3.org/2001/XMLSchema-instance" xsi:noNamespaceSchemaLocation="http://sumo.dlr.de/xsd/sumoConfiguration.xsd">

    <input>
        <net-file value="net.net.xml"/>
        <route-files value="input_routes.rou.xml"/>
    </input>

    <output>
        <write-license value="true"/>
        <tripinfo-output value="tripinfos.xml"/>
    </output>

    <processing>
        <default.speeddev value="0"/>
    </processing>

    <report>
        <xml-validation value="never"/>
        <no-step-log value="true"/>
    </report>

</configuration>
-->

<tripinfos xmlns:xsi="http://www.w3.org/2001/XMLSchema-instance" xsi:noNamespaceSchemaLocation="http://sumo.dlr.de/xsd/tripinfo_file.xsd">
    <tripinfo id="stopped" depart="0.00" departLane="VODUGES_beg_0" departPos="40.00" departSpeed="0.00" departDelay="0.00" arrival="121.00" arrivalLane="VODUGES_beg_0" arrivalPos="200.00" arrivalSpeed="13.57" duration="121.00" routeLength="160.00" waitingTime="0.00" waitingCount="0" stopTime="101.00" timeLoss="7.91" rerouteNo="0" devices="tripinfo_stopped" vType="DEFAULT_VEHTYPE" speedFactor="1.00" vaporized=""/>
    <tripinfo id="overtaking" depart="0.00" departLane="VODUGES_beg_0" departPos="0.00" departSpeed="0.00" departDelay="0.00" arrival="123.00" arrivalLane="VODUGES_beg_0" arrivalPos="200.00" arrivalSpeed="13.32" duration="123.00" routeLength="200.00" waitingTime="97.00" waitingCount="1" stopTime="0.00" timeLoss="108.07" rerouteNo="0" devices="tripinfo_overtaking" vType="DEFAULT_VEHTYPE" speedFactor="1.00" vaporized=""/>
</tripinfos>
