<?xml version="1.0" encoding="UTF-8"?>

<!-- generated on Mon Nov 12 14:33:47 2018 by Eclipse SUMO Version v1_0_1+0617-70ae16b
This data file and the accompanying materials
are made available under the terms of the Eclipse Public License v2.0
which accompanies this distribution, and is available at
http://www.eclipse.org/legal/epl-v20.html
SPDX-License-Identifier: EPL-2.0
<configuration xmlns:xsi="http://www.w3.org/2001/XMLSchema-instance" xsi:noNamespaceSchemaLocation="http://sumo.dlr.de/xsd/sumoConfiguration.xsd">

    <input>
        <net-file value="motorway.net.xml"/>
        <route-files value="input_routes.rou.xml"/>
        <additional-files value="input_additional.add.xml"/>
    </input>

    <output>
        <write-license value="true"/>
    </output>

    <processing>
        <default.speeddev value="0"/>
    </processing>

    <report>
        <verbose value="true"/>
        <xml-validation value="never"/>
        <duration-log.statistics value="true"/>
        <no-step-log value="true"/>
    </report>

</configuration>
-->

<meandata xmlns:xsi="http://www.w3.org/2001/XMLSchema-instance" xsi:noNamespaceSchemaLocation="http://sumo.dlr.de/xsd/meandata_file.xsd">
    <interval begin="0.00" end="1023.00" id="laneData">
        <edge id="beg">
            <lane id="beg_0" sampledSeconds="0.00" departed="0" arrived="0" entered="0" left="0" laneChangedFrom="0" laneChangedTo="0"/>
            <lane id="beg_1" sampledSeconds="0.00" departed="0" arrived="0" entered="0" left="0" laneChangedFrom="0" laneChangedTo="0"/>
            <lane id="beg_2" sampledSeconds="0.00" departed="0" arrived="0" entered="0" left="0" laneChangedFrom="0" laneChangedTo="0"/>
        </edge>
        <edge id="beg2">
            <lane id="beg2_0" sampledSeconds="2110.55" traveltime="95.72" overlapTraveltime="96.70" density="0.69" occupancy="0.34" waitingTime="0.00" speed="31.05" departed="361" arrived="0" entered="0" left="247" laneChangedFrom="115" laneChangedTo="1"/>
            <lane id="beg2_1" sampledSeconds="2306.48" traveltime="89.69" overlapTraveltime="89.98" density="0.75" occupancy="0.37" waitingTime="0.00" speed="33.36" departed="334" arrived="0" entered="0" left="448" laneChangedFrom="1" laneChangedTo="115"/>
        </edge>
        <edge id="end">
            <lane id="end_0" sampledSeconds="3522.88" traveltime="8.16" overlapTraveltime="8.33" density="17.48" occupancy="8.49" waitingTime="0.00" speed="24.25" departed="0" arrived="424" entered="424" left="0" laneChangedFrom="0" laneChangedTo="0"/>
            <lane id="end_1" sampledSeconds="3124.90" traveltime="6.19" overlapTraveltime="6.34" density="15.51" occupancy="7.57" waitingTime="0.00" speed="31.88" departed="0" arrived="494" entered="494" left="0" laneChangedFrom="0" laneChangedTo="0"/>
        </edge>
        <edge id="end2">
            <lane id="end2_0" sampledSeconds="0.00" departed="0" arrived="0" entered="0" left="0" laneChangedFrom="0" laneChangedTo="0"/>
        </edge>
        <edge id="end3">
            <lane id="end3_0" sampledSeconds="0.00" departed="0" arrived="0" entered="0" left="0" laneChangedFrom="0" laneChangedTo="0"/>
        </edge>
        <edge id="merge">
            <lane id="merge_0" sampledSeconds="1275.33" traveltime="10.36" overlapTraveltime="10.90" density="12.85" occupancy="6.32" waitingTime="275.00" speed="9.36" departed="0" arrived="0" entered="223" left="0" laneChangedFrom="223" laneChangedTo="0"/>
            <lane id="merge_1" sampledSeconds="2278.80" traveltime="6.59" overlapTraveltime="6.98" density="22.96" occupancy="10.95" waitingTime="90.00" speed="14.60" departed="0" arrived="0" entered="247" left="424" laneChangedFrom="46" laneChangedTo="223"/>
            <lane id="merge_2" sampledSeconds="1610.02" traveltime="3.22" overlapTraveltime="3.39" density="16.23" occupancy="7.72" waitingTime="0.00" speed="30.07" departed="0" arrived="0" entered="448" left="494" laneChangedFrom="0" laneChangedTo="46"/>
        </edge>
        <edge id="offRamp">
            <lane id="offRamp_0" sampledSeconds="0.00" departed="0" arrived="0" entered="0" left="0" laneChangedFrom="0" laneChangedTo="0"/>
        </edge>
        <edge id="onRamp">
            <lane id="onRamp_0" sampledSeconds="2078.07" traveltime="9.28" overlapTraveltime="9.48" density="6.72" occupancy="3.33" waitingTime="0.00" speed="32.42" departed="223" arrived="0" entered="0" left="223" laneChangedFrom="0" laneChangedTo="0"/>
        </edge>
    </interval>
</meandata>
