<?xml version="1.0" encoding="UTF-8"?>

<!-- generated on Mon Nov 12 14:33:32 2018 by Eclipse SUMO Version v1_0_1+0617-70ae16b
This data file and the accompanying materials
are made available under the terms of the Eclipse Public License v2.0
which accompanies this distribution, and is available at
http://www.eclipse.org/legal/epl-v20.html
SPDX-License-Identifier: EPL-2.0
<configuration xmlns:xsi="http://www.w3.org/2001/XMLSchema-instance" xsi:noNamespaceSchemaLocation="http://sumo.dlr.de/xsd/sumoConfiguration.xsd">

    <input>
        <net-file value="net.net.xml"/>
        <route-files value="input_routes.rou.xml"/>
        <additional-files value="input_additional.add.xml,input_additional2.add.xml"/>
    </input>

    <output>
        <write-license value="true"/>
    </output>

    <time>
        <begin value="0"/>
        <end value="3000"/>
        <step-length value="0.1"/>
    </time>

    <processing>
        <step-method.ballistic value="true"/>
        <default.action-step-length value="1"/>
        <default.speeddev value="0"/>
    </processing>

    <report>
        <verbose value="true"/>
        <xml-validation value="never"/>
        <duration-log.statistics value="true"/>
        <no-step-log value="true"/>
    </report>

    <gui_only>
        <tracker-interval value="0.1"/>
    </gui_only>

</configuration>
-->

<meandata xmlns:xsi="http://www.w3.org/2001/XMLSchema-instance" xsi:noNamespaceSchemaLocation="http://sumo.dlr.de/xsd/meandata_file.xsd">
    <interval begin="0.00" end="60.00" id="dump_60">
        <edge id="1/1to2/1" sampledSeconds="896.30" traveltime="168.12" overlapTraveltime="166.03" density="15.24" occupancy="7.57" waitingTime="91.20" speed="5.93" departed="60" arrived="0" entered="0" left="34" laneChangedFrom="0" laneChangedTo="0"/>
        <edge id="2/1to3/1" sampledSeconds="928.36" traveltime="52.74" overlapTraveltime="53.01" density="15.79" occupancy="7.84" waitingTime="0.00" speed="18.58" departed="0" arrived="0" entered="34" left="2" laneChangedFrom="0" laneChangedTo="0"/>
        <edge id="3/1to4/1" sampledSeconds="4.45" traveltime="51.66" overlapTraveltime="51.93" density="0.08" occupancy="0.04" waitingTime="0.00" speed="18.97" departed="0" arrived="0" entered="2" left="0" laneChangedFrom="0" laneChangedTo="0"/>
    </interval>
    <interval begin="60.00" end="120.00" id="dump_60">
        <edge id="1/1to2/1" sampledSeconds="2288.38" traveltime="127.93" overlapTraveltime="127.78" density="38.92" occupancy="19.42" waitingTime="319.30" speed="7.71" departed="60" arrived="0" entered="0" left="37" laneChangedFrom="0" laneChangedTo="0"/>
        <edge id="2/1to3/1" sampledSeconds="1947.01" traveltime="52.10" overlapTraveltime="52.36" density="33.11" occupancy="16.47" waitingTime="0.00" speed="18.81" departed="0" arrived="0" entered="37" left="37" laneChangedFrom="0" laneChangedTo="0"/>
        <edge id="3/1to4/1" sampledSeconds="1157.84" traveltime="51.94" overlapTraveltime="52.20" density="19.69" occupancy="9.80" waitingTime="0.00" speed="18.87" departed="0" arrived="0" entered="37" left="6" laneChangedFrom="0" laneChangedTo="0"/>
        <edge id="4/1to5/1" sampledSeconds="39.14" traveltime="51.73" overlapTraveltime="51.99" density="0.67" occupancy="0.33" waitingTime="0.00" speed="18.94" departed="0" arrived="0" entered="6" left="0" laneChangedFrom="0" laneChangedTo="0"/>
    </interval>
    <interval begin="120.00" end="180.00" id="dump_60">
        <edge id="1/1to2/1" sampledSeconds="2953.55" traveltime="97.06" overlapTraveltime="97.29" density="50.23" occupancy="24.92" waitingTime="313.70" speed="10.12" departed="24" arrived="0" entered="0" left="36" laneChangedFrom="0" laneChangedTo="0"/>
        <edge id="2/1to3/1" sampledSeconds="1916.26" traveltime="52.05" overlapTraveltime="52.32" density="32.59" occupancy="16.21" waitingTime="0.00" speed="18.83" departed="0" arrived="0" entered="36" left="37" laneChangedFrom="0" laneChangedTo="0"/>
        <edge id="3/1to4/1" sampledSeconds="1949.85" traveltime="52.11" overlapTraveltime="52.38" density="33.16" occupancy="16.50" waitingTime="0.00" speed="18.80" departed="0" arrived="0" entered="37" left="37" laneChangedFrom="0" laneChangedTo="0"/>
        <edge id="4/1to5/1" sampledSeconds="1373.42" traveltime="51.90" overlapTraveltime="52.17" density="23.36" occupancy="11.63" waitingTime="0.00" speed="18.88" departed="0" arrived="0" entered="37" left="11" laneChangedFrom="0" laneChangedTo="0"/>
        <edge id="5/1to6/1" sampledSeconds="109.01" traveltime="51.87" overlapTraveltime="52.14" density="1.85" occupancy="0.91" waitingTime="0.00" speed="18.89" departed="0" arrived="0" entered="11" left="0" laneChangedFrom="0" laneChangedTo="0"/>
    </interval>
    <interval begin="180.00" end="240.00" id="dump_60">
        <edge id="1/1to2/1" sampledSeconds="1761.63" traveltime="56.04" overlapTraveltime="56.30" density="29.96" occupancy="14.69" waitingTime="0.10" speed="17.50" departed="24" arrived="0" entered="0" left="38" laneChangedFrom="0" laneChangedTo="0"/>
        <edge id="2/1to3/1" sampledSeconds="1958.29" traveltime="52.24" overlapTraveltime="52.50" density="33.31" occupancy="16.57" waitingTime="0.00" speed="18.76" departed="0" arrived="0" entered="38" left="36" laneChangedFrom="0" laneChangedTo="0"/>
        <edge id="3/1to4/1" sampledSeconds="1911.27" traveltime="51.98" overlapTraveltime="52.24" density="32.51" occupancy="16.17" waitingTime="0.00" speed="18.85" departed="0" arrived="0" entered="36" left="37" laneChangedFrom="0" laneChangedTo="0"/>
        <edge id="4/1to5/1" sampledSeconds="1948.89" traveltime="52.07" overlapTraveltime="52.33" density="33.15" occupancy="16.49" waitingTime="0.00" speed="18.82" departed="0" arrived="0" entered="37" left="37" laneChangedFrom="0" laneChangedTo="0"/>
        <edge id="5/1to6/1" sampledSeconds="1555.89" traveltime="51.91" overlapTraveltime="52.17" density="26.46" occupancy="13.17" waitingTime="0.00" speed="18.88" departed="0" arrived="0" entered="37" left="16" laneChangedFrom="0" laneChangedTo="0"/>
        <edge id="6/1to7/1" sampledSeconds="216.94" traveltime="51.84" overlapTraveltime="52.10" density="3.69" occupancy="1.83" waitingTime="0.00" speed="18.90" departed="0" arrived="0" entered="16" left="0" laneChangedFrom="0" laneChangedTo="0"/>
    </interval>
    <interval begin="240.00" end="300.00" id="dump_60">
        <edge id="1/1to2/1" sampledSeconds="1363.61" traveltime="56.31" overlapTraveltime="56.57" density="23.19" occupancy="11.31" waitingTime="0.00" speed="17.41" departed="24" arrived="0" entered="0" left="24" laneChangedFrom="0" laneChangedTo="0"/>
        <edge id="2/1to3/1" sampledSeconds="1564.80" traveltime="52.01" overlapTraveltime="52.27" density="26.61" occupancy="13.24" waitingTime="0.00" speed="18.84" departed="0" arrived="0" entered="24" left="36" laneChangedFrom="0" laneChangedTo="0"/>
        <edge id="3/1to4/1" sampledSeconds="1948.82" traveltime="52.08" overlapTraveltime="52.34" density="33.15" occupancy="16.49" waitingTime="0.00" speed="18.82" departed="0" arrived="0" entered="36" left="37" laneChangedFrom="0" laneChangedTo="0"/>
        <edge id="4/1to5/1" sampledSeconds="1908.84" traveltime="51.95" overlapTraveltime="52.21" density="32.47" occupancy="16.15" waitingTime="0.00" speed="18.86" departed="0" arrived="0" entered="37" left="37" laneChangedFrom="0" laneChangedTo="0"/>
        <edge id="5/1to6/1" sampledSeconds="1948.27" traveltime="52.03" overlapTraveltime="52.29" density="33.14" occupancy="16.48" waitingTime="0.00" speed="18.83" departed="0" arrived="0" entered="37" left="37" laneChangedFrom="0" laneChangedTo="0"/>
        <edge id="6/1to7/1" sampledSeconds="1700.14" traveltime="51.92" overlapTraveltime="52.18" density="28.92" occupancy="14.39" waitingTime="0.00" speed="18.88" departed="0" arrived="0" entered="37" left="21" laneChangedFrom="0" laneChangedTo="0"/>
        <edge id="7/1to8/1" sampledSeconds="364.02" traveltime="51.80" overlapTraveltime="52.07" density="6.19" occupancy="3.07" waitingTime="0.00" speed="18.92" departed="0" arrived="0" entered="21" left="0" laneChangedFrom="0" laneChangedTo="0"/>
    </interval>
    <interval begin="300.00" end="360.00" id="dump_60">
        <edge id="1/1to2/1" sampledSeconds="1374.31" traveltime="56.33" overlapTraveltime="56.60" density="23.37" occupancy="11.40" waitingTime="0.00" speed="17.40" departed="24" arrived="0" entered="0" left="24" laneChangedFrom="0" laneChangedTo="0"/>
        <edge id="2/1to3/1" sampledSeconds="1253.68" traveltime="51.73" overlapTraveltime="52.00" density="21.32" occupancy="10.61" waitingTime="0.00" speed="18.94" departed="0" arrived="0" entered="24" left="24" laneChangedFrom="0" laneChangedTo="0"/>
        <edge id="3/1to4/1" sampledSeconds="1487.84" traveltime="51.84" overlapTraveltime="52.11" density="25.30" occupancy="12.59" waitingTime="0.00" speed="18.90" departed="0" arrived="0" entered="24" left="34" laneChangedFrom="0" laneChangedTo="0"/>
        <edge id="4/1to5/1" sampledSeconds="1932.43" traveltime="52.12" overlapTraveltime="52.38" density="32.87" occupancy="16.35" waitingTime="0.00" speed="18.80" departed="0" arrived="0" entered="34" left="37" laneChangedFrom="0" laneChangedTo="0"/>
        <edge id="5/1to6/1" sampledSeconds="1905.83" traveltime="51.93" overlapTraveltime="52.20" density="32.41" occupancy="16.12" waitingTime="0.00" speed="18.87" departed="0" arrived="0" entered="37" left="37" laneChangedFrom="0" laneChangedTo="0"/>
        <edge id="6/1to7/1" sampledSeconds="1948.23" traveltime="52.08" overlapTraveltime="52.35" density="33.14" occupancy="16.48" waitingTime="0.00" speed="18.82" departed="0" arrived="0" entered="37" left="37" laneChangedFrom="0" laneChangedTo="0"/>
        <edge id="7/1to8/1" sampledSeconds="1807.33" traveltime="51.94" overlapTraveltime="52.20" density="30.74" occupancy="15.30" waitingTime="0.00" speed="18.87" departed="0" arrived="0" entered="37" left="26" laneChangedFrom="0" laneChangedTo="0"/>
        <edge id="8/1to9/1" sampledSeconds="549.06" traveltime="51.80" overlapTraveltime="52.06" density="9.34" occupancy="4.64" waitingTime="0.00" speed="18.92" departed="0" arrived="0" entered="26" left="0" laneChangedFrom="0" laneChangedTo="0"/>
    </interval>
    <interval begin="360.00" end="420.00" id="dump_60">
        <edge id="1/1to2/1" sampledSeconds="1370.40" traveltime="56.29" overlapTraveltime="56.55" density="23.31" occupancy="11.37" waitingTime="0.00" speed="17.42" departed="24" arrived="0" entered="0" left="24" laneChangedFrom="0" laneChangedTo="0"/>
        <edge id="10/1to1/1" sampledSeconds="0.43" traveltime="51.21" overlapTraveltime="51.47" density="0.01" occupancy="0.00" waitingTime="0.00" speed="19.14" departed="0" arrived="0" entered="1" left="0" laneChangedFrom="0" laneChangedTo="0"/>
        <edge id="2/1to3/1" sampledSeconds="1263.67" traveltime="51.71" overlapTraveltime="51.97" density="21.49" occupancy="10.69" waitingTime="0.00" speed="18.95" departed="0" arrived="0" entered="24" left="25" laneChangedFrom="0" laneChangedTo="0"/>
        <edge id="3/1to4/1" sampledSeconds="1253.18" traveltime="51.71" overlapTraveltime="51.97" density="21.31" occupancy="10.60" waitingTime="0.00" speed="18.95" departed="0" arrived="0" entered="25" left="25" laneChangedFrom="0" laneChangedTo="0"/>
        <edge id="4/1to5/1" sampledSeconds="1427.84" traveltime="51.88" overlapTraveltime="52.14" density="24.28" occupancy="12.08" waitingTime="0.00" speed="18.89" departed="0" arrived="0" entered="25" left="32" laneChangedFrom="0" laneChangedTo="0"/>
        <edge id="5/1to6/1" sampledSeconds="1902.13" traveltime="52.04" overlapTraveltime="52.30" density="32.35" occupancy="16.10" waitingTime="0.00" speed="18.83" departed="0" arrived="0" entered="32" left="37" laneChangedFrom="0" laneChangedTo="0"/>
        <edge id="6/1to7/1" sampledSeconds="1908.18" traveltime="51.95" overlapTraveltime="52.22" density="32.45" occupancy="16.14" waitingTime="0.00" speed="18.86" departed="0" arrived="0" entered="37" left="37" laneChangedFrom="0" laneChangedTo="0"/>
        <edge id="7/1to8/1" sampledSeconds="1944.25" traveltime="52.04" overlapTraveltime="52.31" density="33.07" occupancy="16.45" waitingTime="0.00" speed="18.83" departed="0" arrived="0" entered="37" left="37" laneChangedFrom="0" laneChangedTo="0"/>
        <edge id="8/1to9/1" sampledSeconds="1871.43" traveltime="51.92" overlapTraveltime="52.18" density="31.83" occupancy="15.84" waitingTime="0.00" speed="18.87" departed="0" arrived="0" entered="37" left="31" laneChangedFrom="0" laneChangedTo="0"/>
        <edge id="9/1to10/1" sampledSeconds="774.30" traveltime="51.82" overlapTraveltime="52.08" density="13.17" occupancy="6.55" waitingTime="0.00" speed="18.91" departed="0" arrived="0" entered="31" left="1" laneChangedFrom="0" laneChangedTo="0"/>
    </interval>
    <interval begin="420.00" end="480.00" id="dump_60">
        <edge id="1/1to2/1" sampledSeconds="1351.67" traveltime="55.57" overlapTraveltime="55.84" density="22.99" occupancy="11.26" waitingTime="0.00" speed="17.64" departed="19" arrived="0" entered="5" left="25" laneChangedFrom="0" laneChangedTo="0"/>
        <edge id="10/1to1/1" sampledSeconds="1018.94" traveltime="51.77" overlapTraveltime="52.04" density="17.33" occupancy="8.62" waitingTime="0.00" speed="18.93" departed="0" arrived="0" entered="34" left="5" laneChangedFrom="0" laneChangedTo="0"/>
        <edge id="2/1to3/1" sampledSeconds="1258.55" traveltime="51.72" overlapTraveltime="51.99" density="21.41" occupancy="10.65" waitingTime="0.00" speed="18.95" departed="0" arrived="0" entered="25" left="24" laneChangedFrom="0" laneChangedTo="0"/>
        <edge id="3/1to4/1" sampledSeconds="1259.79" traveltime="51.65" overlapTraveltime="51.92" density="21.43" occupancy="10.66" waitingTime="0.00" speed="18.97" departed="0" arrived="0" entered="24" left="24" laneChangedFrom="0" laneChangedTo="0"/>
        <edge id="4/1to5/1" sampledSeconds="1257.27" traveltime="51.77" overlapTraveltime="52.03" density="21.38" occupancy="10.64" waitingTime="0.00" speed="18.93" departed="0" arrived="0" entered="24" left="25" laneChangedFrom="0" laneChangedTo="0"/>
        <edge id="5/1to6/1" sampledSeconds="1371.20" traveltime="51.83" overlapTraveltime="52.10" density="23.32" occupancy="11.60" waitingTime="0.00" speed="18.91" departed="0" arrived="0" entered="25" left="31" laneChangedFrom="0" laneChangedTo="0"/>
        <edge id="6/1to7/1" sampledSeconds="1865.37" traveltime="52.05" overlapTraveltime="52.31" density="31.73" occupancy="15.79" waitingTime="0.00" speed="18.83" departed="0" arrived="0" entered="31" left="37" laneChangedFrom="0" laneChangedTo="0"/>
        <edge id="7/1to8/1" sampledSeconds="1908.17" traveltime="51.96" overlapTraveltime="52.23" density="32.45" occupancy="16.15" waitingTime="0.00" speed="18.86" departed="0" arrived="0" entered="37" left="36" laneChangedFrom="0" laneChangedTo="0"/>
        <edge id="8/1to9/1" sampledSeconds="1945.19" traveltime="52.12" overlapTraveltime="52.38" density="33.08" occupancy="16.46" waitingTime="0.00" speed="18.80" departed="0" arrived="0" entered="36" left="36" laneChangedFrom="0" laneChangedTo="0"/>
        <edge id="9/1to10/1" sampledSeconds="1895.77" traveltime="51.87" overlapTraveltime="52.14" density="32.24" occupancy="16.04" waitingTime="0.00" speed="18.89" departed="0" arrived="0" entered="36" left="34" laneChangedFrom="0" laneChangedTo="0"/>
    </interval>
    <interval begin="480.00" end="540.00" id="dump_60">
        <edge id="1/1to2/1" sampledSeconds="1620.99" traveltime="51.80" overlapTraveltime="52.06" density="27.57" occupancy="13.72" waitingTime="0.00" speed="18.92" departed="0" arrived="0" entered="35" left="26" laneChangedFrom="0" laneChangedTo="0"/>
        <edge id="10/1to1/1" sampledSeconds="1902.24" traveltime="51.94" overlapTraveltime="52.21" density="32.35" occupancy="16.10" waitingTime="0.00" speed="18.87" departed="0" arrived="0" entered="37" left="35" laneChangedFrom="0" laneChangedTo="0"/>
        <edge id="2/1to3/1" sampledSeconds="1274.91" traveltime="51.74" overlapTraveltime="52.00" density="21.68" occupancy="10.79" waitingTime="0.00" speed="18.94" departed="0" arrived="0" entered="26" left="24" laneChangedFrom="0" laneChangedTo="0"/>
        <edge id="3/1to4/1" sampledSeconds="1257.24" traveltime="51.74" overlapTraveltime="52.00" density="21.38" occupancy="10.64" waitingTime="0.00" speed="18.94" departed="0" arrived="0" entered="24" left="24" laneChangedFrom="0" laneChangedTo="0"/>
        <edge id="4/1to5/1" sampledSeconds="1258.01" traveltime="51.65" overlapTraveltime="51.91" density="21.40" occupancy="10.64" waitingTime="0.00" speed="18.97" departed="0" arrived="0" entered="24" left="24" laneChangedFrom="0" laneChangedTo="0"/>
        <edge id="5/1to6/1" sampledSeconds="1261.43" traveltime="51.70" overlapTraveltime="51.96" density="21.45" occupancy="10.67" waitingTime="0.00" speed="18.95" departed="0" arrived="0" entered="24" left="24" laneChangedFrom="0" laneChangedTo="0"/>
        <edge id="6/1to7/1" sampledSeconds="1323.17" traveltime="51.80" overlapTraveltime="52.06" density="22.50" occupancy="11.19" waitingTime="0.00" speed="18.92" departed="0" arrived="0" entered="24" left="29" laneChangedFrom="0" laneChangedTo="0"/>
        <edge id="7/1to8/1" sampledSeconds="1816.89" traveltime="52.01" overlapTraveltime="52.27" density="30.90" occupancy="15.38" waitingTime="0.00" speed="18.84" departed="0" arrived="0" entered="29" left="37" laneChangedFrom="0" laneChangedTo="0"/>
        <edge id="8/1to9/1" sampledSeconds="1913.58" traveltime="51.96" overlapTraveltime="52.23" density="32.55" occupancy="16.19" waitingTime="0.00" speed="18.86" departed="0" arrived="0" entered="37" left="37" laneChangedFrom="0" laneChangedTo="0"/>
        <edge id="9/1to10/1" sampledSeconds="1942.59" traveltime="52.04" overlapTraveltime="52.30" density="33.04" occupancy="16.44" waitingTime="0.00" speed="18.83" departed="0" arrived="0" entered="37" left="37" laneChangedFrom="0" laneChangedTo="0"/>
    </interval>
    <interval begin="540.00" end="600.00" id="dump_60">
        <edge id="1/1to2/1" sampledSeconds="1909.13" traveltime="51.94" overlapTraveltime="52.21" density="32.47" occupancy="16.15" waitingTime="0.00" speed="18.87" departed="0" arrived="0" entered="37" left="36" laneChangedFrom="0" laneChangedTo="0"/>
        <edge id="10/1to1/1" sampledSeconds="1944.85" traveltime="52.06" overlapTraveltime="52.32" density="33.08" occupancy="16.46" waitingTime="0.00" speed="18.82" departed="0" arrived="0" entered="37" left="37" laneChangedFrom="0" laneChangedTo="0"/>
        <edge id="2/1to3/1" sampledSeconds="1686.04" traveltime="51.80" overlapTraveltime="52.07" density="28.68" occupancy="14.27" waitingTime="0.00" speed="18.92" departed="0" arrived="0" entered="36" left="28" laneChangedFrom="0" laneChangedTo="0"/>
        <edge id="3/1to4/1" sampledSeconds="1297.28" traveltime="51.67" overlapTraveltime="51.94" density="22.06" occupancy="10.97" waitingTime="0.00" speed="18.96" departed="0" arrived="0" entered="28" left="24" laneChangedFrom="0" laneChangedTo="0"/>
        <edge id="4/1to5/1" sampledSeconds="1255.61" traveltime="51.74" overlapTraveltime="52.00" density="21.36" occupancy="10.62" waitingTime="0.00" speed="18.94" departed="0" arrived="0" entered="24" left="24" laneChangedFrom="0" laneChangedTo="0"/>
        <edge id="5/1to6/1" sampledSeconds="1258.07" traveltime="51.73" overlapTraveltime="51.99" density="21.40" occupancy="10.64" waitingTime="0.00" speed="18.94" departed="0" arrived="0" entered="24" left="25" laneChangedFrom="0" laneChangedTo="0"/>
        <edge id="6/1to7/1" sampledSeconds="1265.15" traveltime="51.74" overlapTraveltime="52.00" density="21.52" occupancy="10.70" waitingTime="0.00" speed="18.94" departed="0" arrived="0" entered="24" left="25" laneChangedFrom="0" laneChangedTo="0"/>
        <edge id="7/1to8/1" sampledSeconds="1287.70" traveltime="51.82" overlapTraveltime="52.08" density="21.90" occupancy="10.89" waitingTime="0.00" speed="18.91" departed="0" arrived="0" entered="24" left="29" laneChangedFrom="0" laneChangedTo="0"/>
        <edge id="8/1to9/1" sampledSeconds="1755.40" traveltime="52.01" overlapTraveltime="52.27" density="29.86" occupancy="14.85" waitingTime="0.00" speed="18.84" departed="0" arrived="0" entered="29" left="37" laneChangedFrom="0" laneChangedTo="0"/>
        <edge id="9/1to10/1" sampledSeconds="1912.04" traveltime="51.92" overlapTraveltime="52.18" density="32.52" occupancy="16.18" waitingTime="0.00" speed="18.88" departed="0" arrived="0" entered="37" left="37" laneChangedFrom="0" laneChangedTo="0"/>
    </interval>
    <interval begin="600.00" end="660.00" id="dump_60">
        <edge id="1/1to2/1" sampledSeconds="1940.29" traveltime="52.05" overlapTraveltime="52.32" density="33.00" occupancy="16.42" waitingTime="0.00" speed="18.83" departed="0" arrived="0" entered="37" left="37" laneChangedFrom="0" laneChangedTo="0"/>
        <edge id="10/1to1/1" sampledSeconds="1918.16" traveltime="52.05" overlapTraveltime="52.32" density="32.62" occupancy="16.23" waitingTime="0.00" speed="18.83" departed="0" arrived="0" entered="37" left="37" laneChangedFrom="0" laneChangedTo="0"/>
        <edge id="2/1to3/1" sampledSeconds="1911.73" traveltime="51.91" overlapTraveltime="52.18" density="32.51" occupancy="16.17" waitingTime="0.00" speed="18.88" departed="0" arrived="0" entered="37" left="36" laneChangedFrom="0" laneChangedTo="0"/>
        <edge id="3/1to4/1" sampledSeconds="1744.96" traveltime="51.90" overlapTraveltime="52.16" density="29.68" occupancy="14.77" waitingTime="0.00" speed="18.88" departed="0" arrived="0" entered="36" left="29" laneChangedFrom="0" laneChangedTo="0"/>
        <edge id="4/1to5/1" sampledSeconds="1330.41" traveltime="51.73" overlapTraveltime="51.99" density="22.63" occupancy="11.25" waitingTime="0.00" speed="18.94" departed="0" arrived="0" entered="29" left="24" laneChangedFrom="0" laneChangedTo="0"/>
        <edge id="5/1to6/1" sampledSeconds="1254.85" traveltime="51.73" overlapTraveltime="52.00" density="21.34" occupancy="10.62" waitingTime="0.00" speed="18.94" departed="0" arrived="0" entered="24" left="24" laneChangedFrom="0" laneChangedTo="0"/>
        <edge id="6/1to7/1" sampledSeconds="1256.67" traveltime="51.67" overlapTraveltime="51.94" density="21.37" occupancy="10.63" waitingTime="0.00" speed="18.96" departed="0" arrived="0" entered="25" left="24" laneChangedFrom="0" laneChangedTo="0"/>
        <edge id="7/1to8/1" sampledSeconds="1267.90" traveltime="51.65" overlapTraveltime="51.92" density="21.56" occupancy="10.73" waitingTime="0.00" speed="18.97" departed="0" arrived="0" entered="25" left="23" laneChangedFrom="0" laneChangedTo="0"/>
        <edge id="8/1to9/1" sampledSeconds="1264.79" traveltime="51.72" overlapTraveltime="51.98" density="21.51" occupancy="10.70" waitingTime="0.00" speed="18.95" departed="0" arrived="0" entered="23" left="27" laneChangedFrom="0" laneChangedTo="0"/>
        <edge id="9/1to10/1" sampledSeconds="1681.54" traveltime="51.87" overlapTraveltime="52.14" density="28.60" occupancy="14.23" waitingTime="0.00" speed="18.89" departed="0" arrived="0" entered="27" left="37" laneChangedFrom="0" laneChangedTo="0"/>
    </interval>
    <interval begin="660.00" end="720.00" id="dump_60">
        <edge id="1/1to2/1" sampledSeconds="1915.97" traveltime="51.99" overlapTraveltime="52.25" density="32.59" occupancy="16.21" waitingTime="0.00" speed="18.85" departed="0" arrived="0" entered="36" left="37" laneChangedFrom="0" laneChangedTo="0"/>
        <edge id="10/1to1/1" sampledSeconds="1603.83" traveltime="51.94" overlapTraveltime="52.21" density="27.28" occupancy="13.57" waitingTime="0.00" speed="18.87" departed="0" arrived="0" entered="25" left="36" laneChangedFrom="0" laneChangedTo="0"/>
        <edge id="2/1to3/1" sampledSeconds="1937.34" traveltime="52.02" overlapTraveltime="52.29" density="32.95" occupancy="16.39" waitingTime="0.00" speed="18.84" departed="0" arrived="0" entered="37" left="37" laneChangedFrom="0" laneChangedTo="0"/>
        <edge id="3/1to4/1" sampledSeconds="1916.50" traveltime="51.93" overlapTraveltime="52.19" density="32.60" occupancy="16.21" waitingTime="0.00" speed="18.87" departed="0" arrived="0" entered="37" left="37" laneChangedFrom="0" laneChangedTo="0"/>
        <edge id="4/1to5/1" sampledSeconds="1793.35" traveltime="51.89" overlapTraveltime="52.15" density="30.50" occupancy="15.17" waitingTime="0.00" speed="18.89" departed="0" arrived="0" entered="37" left="31" laneChangedFrom="0" laneChangedTo="0"/>
        <edge id="5/1to6/1" sampledSeconds="1371.18" traveltime="51.71" overlapTraveltime="51.97" density="23.32" occupancy="11.60" waitingTime="0.00" speed="18.95" departed="0" arrived="0" entered="31" left="24" laneChangedFrom="0" laneChangedTo="0"/>
        <edge id="6/1to7/1" sampledSeconds="1255.37" traveltime="51.72" overlapTraveltime="51.98" density="21.35" occupancy="10.62" waitingTime="0.00" speed="18.95" departed="0" arrived="0" entered="24" left="24" laneChangedFrom="0" laneChangedTo="0"/>
        <edge id="7/1to8/1" sampledSeconds="1255.97" traveltime="51.66" overlapTraveltime="51.93" density="21.36" occupancy="10.63" waitingTime="0.00" speed="18.97" departed="0" arrived="0" entered="24" left="25" laneChangedFrom="0" laneChangedTo="0"/>
        <edge id="8/1to9/1" sampledSeconds="1268.78" traveltime="51.74" overlapTraveltime="52.00" density="21.58" occupancy="10.73" waitingTime="0.00" speed="18.94" departed="0" arrived="0" entered="25" left="24" laneChangedFrom="0" laneChangedTo="0"/>
        <edge id="9/1to10/1" sampledSeconds="1252.92" traveltime="51.71" overlapTraveltime="51.97" density="21.31" occupancy="10.60" waitingTime="0.00" speed="18.95" departed="0" arrived="0" entered="24" left="25" laneChangedFrom="0" laneChangedTo="0"/>
    </interval>
    <interval begin="720.00" end="780.00" id="dump_60">
        <edge id="1/1to2/1" sampledSeconds="1612.73" traveltime="53.33" overlapTraveltime="53.60" density="27.43" occupancy="13.65" waitingTime="0.00" speed="18.38" departed="3" arrived="0" entered="24" left="35" laneChangedFrom="0" laneChangedTo="0"/>
        <edge id="10/1to1/1" sampledSeconds="1252.81" traveltime="51.77" overlapTraveltime="52.06" density="21.31" occupancy="10.60" waitingTime="0.00" speed="18.92" departed="0" arrived="0" entered="24" left="24" laneChangedFrom="0" laneChangedTo="0"/>
        <edge id="2/1to3/1" sampledSeconds="1902.75" traveltime="51.86" overlapTraveltime="52.12" density="32.36" occupancy="16.10" waitingTime="0.00" speed="18.90" departed="0" arrived="0" entered="34" left="37" laneChangedFrom="0" laneChangedTo="0"/>
        <edge id="3/1to4/1" sampledSeconds="1937.30" traveltime="52.04" overlapTraveltime="52.30" density="32.95" occupancy="16.39" waitingTime="0.00" speed="18.83" departed="0" arrived="0" entered="37" left="37" laneChangedFrom="0" laneChangedTo="0"/>
        <edge id="4/1to5/1" sampledSeconds="1917.69" traveltime="51.94" overlapTraveltime="52.21" density="32.62" occupancy="16.23" waitingTime="0.00" speed="18.87" departed="0" arrived="0" entered="36" left="36" laneChangedFrom="0" laneChangedTo="0"/>
        <edge id="5/1to6/1" sampledSeconds="1832.75" traveltime="51.91" overlapTraveltime="52.17" density="31.17" occupancy="15.51" waitingTime="0.00" speed="18.88" departed="0" arrived="0" entered="36" left="32" laneChangedFrom="0" laneChangedTo="0"/>
        <edge id="6/1to7/1" sampledSeconds="1424.90" traveltime="51.75" overlapTraveltime="52.02" density="24.23" occupancy="12.05" waitingTime="0.00" speed="18.93" departed="0" arrived="0" entered="32" left="24" laneChangedFrom="0" laneChangedTo="0"/>
        <edge id="7/1to8/1" sampledSeconds="1255.34" traveltime="51.73" overlapTraveltime="51.99" density="21.35" occupancy="10.62" waitingTime="0.00" speed="18.95" departed="0" arrived="0" entered="24" left="24" laneChangedFrom="0" laneChangedTo="0"/>
        <edge id="8/1to9/1" sampledSeconds="1255.13" traveltime="51.69" overlapTraveltime="51.96" density="21.35" occupancy="10.62" waitingTime="0.00" speed="18.96" departed="0" arrived="0" entered="24" left="24" laneChangedFrom="0" laneChangedTo="0"/>
        <edge id="9/1to10/1" sampledSeconds="1270.11" traveltime="51.77" overlapTraveltime="52.03" density="21.60" occupancy="10.75" waitingTime="0.00" speed="18.93" departed="0" arrived="0" entered="24" left="25" laneChangedFrom="0" laneChangedTo="0"/>
    </interval>
    <interval begin="780.00" end="840.00" id="dump_60">
        <edge id="1/1to2/1" sampledSeconds="1465.17" traveltime="53.35" overlapTraveltime="53.62" density="24.92" occupancy="12.39" waitingTime="0.00" speed="18.37" departed="3" arrived="0" entered="25" left="26" laneChangedFrom="0" laneChangedTo="0"/>
        <edge id="10/1to1/1" sampledSeconds="1273.22" traveltime="51.98" overlapTraveltime="52.29" density="21.65" occupancy="10.77" waitingTime="0.00" speed="18.84" departed="0" arrived="0" entered="25" left="25" laneChangedFrom="0" laneChangedTo="0"/>
        <edge id="2/1to3/1" sampledSeconds="1525.11" traveltime="51.82" overlapTraveltime="52.09" density="25.94" occupancy="12.90" waitingTime="0.00" speed="18.91" departed="0" arrived="0" entered="27" left="32" laneChangedFrom="0" laneChangedTo="0"/>
        <edge id="3/1to4/1" sampledSeconds="1882.14" traveltime="51.95" overlapTraveltime="52.21" density="32.01" occupancy="15.93" waitingTime="0.00" speed="18.86" departed="0" arrived="0" entered="32" left="36" laneChangedFrom="0" laneChangedTo="0"/>
        <edge id="4/1to5/1" sampledSeconds="1934.23" traveltime="52.01" overlapTraveltime="52.27" density="32.90" occupancy="16.37" waitingTime="0.00" speed="18.84" departed="0" arrived="0" entered="37" left="38" laneChangedFrom="0" laneChangedTo="0"/>