<?xml version="1.0" encoding="UTF-8"?>

<!-- generated on Mon Nov 12 14:33:53 2018 by Eclipse SUMO Version v1_0_1+0617-70ae16b
This data file and the accompanying materials
are made available under the terms of the Eclipse Public License v2.0
which accompanies this distribution, and is available at
http://www.eclipse.org/legal/epl-v20.html
SPDX-License-Identifier: EPL-2.0
<configuration xmlns:xsi="http://www.w3.org/2001/XMLSchema-instance" xsi:noNamespaceSchemaLocation="http://sumo.dlr.de/xsd/sumoConfiguration.xsd">

    <input>
        <net-file value="net.net.xml"/>
        <route-files value="input_routes.rou.xml"/>
    </input>

    <output>
        <write-license value="true"/>
        <fcd-output value="fcd.xml"/>
        <tripinfo-output value="tripinfos.xml"/>
    </output>

    <processing>
        <default.speeddev value="0"/>
    </processing>

    <report>
        <xml-validation value="never"/>
        <no-step-log value="true"/>
    </report>

</configuration>
-->

<fcd-export xmlns:xsi="http://www.w3.org/2001/XMLSchema-instance" xsi:noNamespaceSchemaLocation="http://sumo.dlr.de/xsd/fcd_file.xsd">
    <timestep time="0.00">
        <vehicle id="stopped" x="40.00" y="-1.65" angle="90.00" type="DEFAULT_VEHTYPE" speed="0.00" pos="40.00" lane="VODUGES_beg_0" slope="0.00"/>
    </timestep>
    <timestep time="1.00">
        <vehicle id="stopped" x="42.60" y="-1.65" angle="90.00" type="DEFAULT_VEHTYPE" speed="2.60" pos="42.60" lane="VODUGES_beg_0" slope="0.00"/>
    </timestep>
    <timestep time="2.00">
        <vehicle id="stopped" x="47.39" y="-1.65" angle="90.00" type="DEFAULT_VEHTYPE" speed="4.79" pos="47.39" lane="VODUGES_beg_0" slope="0.00"/>
    </timestep>
    <timestep time="3.00">
        <vehicle id="oncoming1" x="100.00" y="1.65" angle="270.00" type="DEFAULT_VEHTYPE" speed="0.00" pos="100.00" lane="-VODUGES_beg_0" slope="0.00"/>
        <vehicle id="oncoming2" x="180.00" y="1.65" angle="270.00" type="DEFAULT_VEHTYPE" speed="0.00" pos="20.00" lane="-VODUGES_beg_0" slope="0.00"/>
        <vehicle id="oncoming3" x="200.00" y="1.65" angle="270.00" type="DEFAULT_VEHTYPE" speed="0.00" pos="0.00" lane="-VODUGES_beg_0" slope="0.00"/>
        <vehicle id="overtaking" x="0.00" y="-1.65" angle="90.00" type="DEFAULT_VEHTYPE" speed="0.00" pos="0.00" lane="VODUGES_beg_0" slope="0.00"/>
        <vehicle id="stopped" x="53.86" y="-1.65" angle="90.00" type="DEFAULT_VEHTYPE" speed="6.47" pos="53.86" lane="VODUGES_beg_0" slope="0.00"/>
        <vehicle id="stopped2" x="40.00" y="-1.65" angle="90.00" type="DEFAULT_VEHTYPE" speed="0.00" pos="40.00" lane="VODUGES_beg_0" slope="0.00"/>
    </timestep>
    <timestep time="4.00">
        <vehicle id="oncoming1" x="98.56" y="1.65" angle="270.00" type="DEFAULT_VEHTYPE" speed="1.44" pos="101.44" lane="-VODUGES_beg_0" slope="0.00"/>
        <vehicle id="oncoming2" x="178.33" y="1.65" angle="270.00" type="DEFAULT_VEHTYPE" speed="1.67" pos="21.67" lane="-VODUGES_beg_0" slope="0.00"/>
        <vehicle id="oncoming3" x="197.46" y="1.65" angle="270.00" type="DEFAULT_VEHTYPE" speed="2.54" pos="2.54" lane="-VODUGES_beg_0" slope="0.00"/>
        <vehicle id="overtaking" x="1.37" y="-1.65" angle="90.00" type="DEFAULT_VEHTYPE" speed="1.37" pos="1.37" lane="VODUGES_beg_0" slope="0.00"/>
        <vehicle id="stopped" x="57.15" y="-1.65" angle="90.00" type="DEFAULT_VEHTYPE" speed="3.28" pos="57.15" lane="VODUGES_beg_0" slope="0.00"/>
        <vehicle id="stopped2" x="41.71" y="-1.65" angle="90.00" type="DEFAULT_VEHTYPE" speed="1.71" pos="41.71" lane="VODUGES_beg_0" slope="0.00"/>
    </timestep>
    <timestep time="5.00">
        <vehicle id="oncoming1" x="95.16" y="1.65" angle="270.00" type="DEFAULT_VEHTYPE" speed="3.40" pos="104.84" lane="-VODUGES_beg_0" slope="0.00"/>
        <vehicle id="oncoming2" x="174.82" y="1.65" angle="270.00" type="DEFAULT_VEHTYPE" speed="3.51" pos="25.18" lane="-VODUGES_beg_0" slope="0.00"/>
        <vehicle id="oncoming3" x="192.37" y="1.65" angle="270.00" type="DEFAULT_VEHTYPE" speed="5.08" pos="7.63" lane="-VODUGES_beg_0" slope="0.00"/>
        <vehicle id="overtaking" x="5.24" y="-1.65" angle="90.00" type="DEFAULT_VEHTYPE" speed="3.87" pos="5.24" lane="VODUGES_beg_0" slope="0.00"/>
        <vehicle id="stopped" x="57.87" y="-1.65" angle="90.00" type="DEFAULT_VEHTYPE" speed="0.73" pos="57.87" lane="VODUGES_beg_0" slope="0.00"/>
        <vehicle id="stopped2" x="45.01" y="-1.65" angle="90.00" type="DEFAULT_VEHTYPE" speed="3.30" pos="45.01" lane="VODUGES_beg_0" slope="0.00"/>
    </timestep>
    <timestep time="6.00">
        <vehicle id="oncoming1" x="90.12" y="1.65" angle="270.00" type="DEFAULT_VEHTYPE" speed="5.04" pos="109.88" lane="-VODUGES_beg_0" slope="0.00"/>
        <vehicle id="oncoming2" x="169.03" y="1.65" angle="270.00" type="DEFAULT_VEHTYPE" speed="5.79" pos="30.97" lane="-VODUGES_beg_0" slope="0.00"/>
        <vehicle id="oncoming3" x="185.81" y="1.65" angle="270.00" type="DEFAULT_VEHTYPE" speed="6.57" pos="14.19" lane="-VODUGES_beg_0" slope="0.00"/>
        <vehicle id="overtaking" x="10.70" y="-1.65" angle="90.00" type="DEFAULT_VEHTYPE" speed="5.46" pos="10.70" lane="VODUGES_beg_0" slope="0.00"/>
        <vehicle id="stopped" x="57.96" y="-1.65" angle="90.00" type="DEFAULT_VEHTYPE" speed="0.08" pos="57.96" lane="VODUGES_beg_0" slope="0.00"/>
        <vehicle id="stopped2" x="49.17" y="-1.65" angle="90.00" type="DEFAULT_VEHTYPE" speed="4.16" pos="49.17" lane="VODUGES_beg_0" slope="0.00"/>
    </timestep>
    <timestep time="7.00">
        <vehicle id="oncoming1" x="83.45" y="1.65" angle="270.00" type="DEFAULT_VEHTYPE" speed="6.67" pos="116.55" lane="-VODUGES_beg_0" slope="0.00"/>
        <vehicle id="oncoming2" x="160.66" y="1.65" angle="270.00" type="DEFAULT_VEHTYPE" speed="8.38" pos="39.34" lane="-VODUGES_beg_0" slope="0.00"/>
        <vehicle id="oncoming3" x="179.15" y="1.65" angle="270.00" type="DEFAULT_VEHTYPE" speed="6.65" pos="20.85" lane="-VODUGES_beg_0" slope="0.00"/>
        <vehicle id="overtaking" x="18.16" y="-1.65" angle="90.00" type="DEFAULT_VEHTYPE" speed="7.46" pos="18.16" lane="VODUGES_beg_0" slope="0.00"/>
        <vehicle id="stopped" x="57.99" y="-1.65" angle="90.00" type="DEFAULT_VEHTYPE" speed="0.04" pos="57.99" lane="VODUGES_beg_0" slope="0.00"/>
        <vehicle id="stopped2" x="49.66" y="-1.65" angle="90.00" type="DEFAULT_VEHTYPE" speed="0.49" pos="49.66" lane="VODUGES_beg_0" slope="0.00"/>
    </timestep>
    <timestep time="8.00">
        <vehicle id="oncoming1" x="74.79" y="1.65" angle="270.00" type="DEFAULT_VEHTYPE" speed="8.66" pos="125.21" lane="-VODUGES_beg_0" slope="0.00"/>
        <vehicle id="oncoming2" x="150.27" y="1.65" angle="270.00" type="DEFAULT_VEHTYPE" speed="10.39" pos="49.73" lane="-VODUGES_beg_0" slope="0.00"/>
        <vehicle id="oncoming3" x="170.64" y="1.65" angle="270.00" type="DEFAULT_VEHTYPE" speed="8.52" pos="29.36" lane="-VODUGES_beg_0" slope="0.00"/>
        <vehicle id="overtaking" x="27.53" y="-1.65" angle="90.00" type="DEFAULT_VEHTYPE" speed="9.37" pos="27.53" lane="VODUGES_beg_0" slope="0.00"/>
        <vehicle id="stopped" x="57.99" y="-1.65" angle="90.00" type="DEFAULT_VEHTYPE" speed="0.00" pos="57.99" lane="VODUGES_beg_0" slope="0.00"/>
        <vehicle id="stopped2" x="49.94" y="-1.65" angle="90.00" type="DEFAULT_VEHTYPE" speed="0.28" pos="49.94" lane="VODUGES_beg_0" slope="0.00"/>
    </timestep>
    <timestep time="9.00">
        <vehicle id="oncoming1" x="63.87" y="1.65" angle="270.00" type="DEFAULT_VEHTYPE" speed="10.92" pos="136.13" lane="-VODUGES_beg_0" slope="0.00"/>
        <vehicle id="oncoming2" x="137.36" y="1.65" angle="270.00" type="DEFAULT_VEHTYPE" speed="12.91" pos="62.64" lane="-VODUGES_beg_0" slope="0.00"/>
        <vehicle id="oncoming3" x="160.66" y="1.65" angle="270.00" type="DEFAULT_VEHTYPE" speed="9.98" pos="39.34" lane="-VODUGES_beg_0" slope="0.00"/>
        <vehicle id="overtaking" x="36.88" y="-1.65" angle="90.00" type="DEFAULT_VEHTYPE" speed="9.35" pos="36.88" lane="VODUGES_beg_0" slope="0.00"/>
        <vehicle id="stopped" x="57.99" y="-1.65" angle="90.00" type="DEFAULT_VEHTYPE" speed="0.00" pos="57.99" lane="VODUGES_beg_0" slope="0.00"/>
        <vehicle id="stopped2" x="49.98" y="-1.65" angle="90.00" type="DEFAULT_VEHTYPE" speed="0.04" pos="49.98" lane="VODUGES_beg_0" slope="0.00"/>
    </timestep>
    <timestep time="10.00">
        <vehicle id="oncoming1" x="50.77" y="1.65" angle="270.00" type="DEFAULT_VEHTYPE" speed="13.10" pos="149.23" lane="-VODUGES_beg_0" slope="0.00"/>
        <vehicle id="oncoming2" x="124.36" y="1.65" angle="270.00" type="DEFAULT_VEHTYPE" speed="13.00" pos="75.64" lane="-VODUGES_beg_0" slope="0.00"/>
        <vehicle id="oncoming3" x="148.14" y="1.65" angle="270.00" type="DEFAULT_VEHTYPE" speed="12.52" pos="51.86" lane="-VODUGES_beg_0" slope="0.00"/>
        <vehicle id="overtaking" x="41.73" y="-1.65" angle="90.00" type="DEFAULT_VEHTYPE" speed="4.85" pos="41.73" lane="VODUGES_beg_0" slope="0.00"/>
        <vehicle id="stopped" x="57.99" y="-1.65" angle="90.00" type="DEFAULT_VEHTYPE" speed="0.00" pos="57.99" lane="VODUGES_beg_0" slope="0.00"/>
        <vehicle id="stopped2" x="49.98" y="-1.65" angle="90.00" type="DEFAULT_VEHTYPE" speed="0.00" pos="49.98" lane="VODUGES_beg_0" slope="0.00"/>
    </timestep>
    <timestep time="11.00">
        <vehicle id="oncoming1" x="37.55" y="1.65" angle="270.00" type="DEFAULT_VEHTYPE" speed="13.22" pos="162.45" lane="-VODUGES_beg_0" slope="0.00"/>
        <vehicle id="oncoming2" x="110.86" y="1.65" angle="270.00" type="DEFAULT_VEHTYPE" speed="13.49" pos="89.14" lane="-VODUGES_beg_0" slope="0.00"/>
        <vehicle id="oncoming3" x="135.07" y="1.65" angle="270.00" type="DEFAULT_VEHTYPE" speed="13.07" pos="64.93" lane="-VODUGES_beg_0" slope="0.00"/>
        <vehicle id="overtaking" x="42.40" y="-1.65" angle="90.00" type="DEFAULT_VEHTYPE" speed="0.67" pos="42.40" lane="VODUGES_beg_0" slope="0.00"/>
        <vehicle id="stopped" x="57.99" y="-1.65" angle="90.00" type="DEFAULT_VEHTYPE" speed="0.00" pos="57.99" lane="VODUGES_beg_0" slope="0.00"/>
        <vehicle id="stopped2" x="49.98" y="-1.65" angle="90.00" type="DEFAULT_VEHTYPE" speed="0.00" pos="49.98" lane="VODUGES_beg_0" slope="0.00"/>
    </timestep>
    <timestep time="12.00">
        <vehicle id="oncoming1" x="24.88" y="1.65" angle="270.00" type="DEFAULT_VEHTYPE" speed="12.67" pos="175.12" lane="-VODUGES_beg_0" slope="0.00"/>
        <vehicle id="oncoming2" x="98.05" y="1.65" angle="270.00" type="DEFAULT_VEHTYPE" speed="12.82" pos="101.95" lane="-VODUGES_beg_0" slope="0.00"/>
        <vehicle id="oncoming3" x="122.34" y="1.65" angle="270.00" type="DEFAULT_VEHTYPE" speed="12.74" pos="77.66" lane="-VODUGES_beg_0" slope="0.00"/>
        <vehicle id="overtaking" x="42.46" y="-1.65" angle="90.00" type="DEFAULT_VEHTYPE" speed="0.06" pos="42.46" lane="VODUGES_beg_0" slope="0.00"/>
        <vehicle id="stopped" x="57.99" y="-1.65" angle="90.00" type="DEFAULT_VEHTYPE" speed="0.00" pos="57.99" lane="VODUGES_beg_0" slope="0.00"/>
        <vehicle id="stopped2" x="49.98" y="-1.65" angle="90.00" type="DEFAULT_VEHTYPE" speed="0.00" pos="49.98" lane="VODUGES_beg_0" slope="0.00"/>
    </timestep>
    <timestep time="13.00">
        <vehicle id="oncoming1" x="11.50" y="1.65" angle="270.00" type="DEFAULT_VEHTYPE" speed="13.37" pos="188.50" lane="-VODUGES_beg_0" slope="0.00"/>
        <vehicle id="oncoming2" x="84.86" y="1.65" angle="270.00" type="DEFAULT_VEHTYPE" speed="13.18" pos="115.14" lane="-VODUGES_beg_0" slope="0.00"/>
        <vehicle id="oncoming3" x="108.75" y="1.65" angle="270.00" type="DEFAULT_VEHTYPE" speed="13.58" pos="91.25" lane="-VODUGES_beg_0" slope="0.00"/>
        <vehicle id="overtaking" x="42.48" y="-1.65" angle="90.00" type="DEFAULT_VEHTYPE" speed="0.02" pos="42.48" lane="VODUGES_beg_0" slope="0.00"/>
        <vehicle id="stopped" x="57.99" y="-1.65" angle="90.00" type="DEFAULT_VEHTYPE" speed="0.00" pos="57.99" lane="VODUGES_beg_0" slope="0.00"/>
        <vehicle id="stopped2" x="49.98" y="-1.65" angle="90.00" type="DEFAULT_VEHTYPE" speed="0.00" pos="49.98" lane="VODUGES_beg_0" slope="0.00"/>
    </timestep>
    <timestep time="14.00">
        <vehicle id="oncoming2" x="71.37" y="1.65" angle="270.00" type="DEFAULT_VEHTYPE" speed="13.50" pos="128.63" lane="-VODUGES_beg_0" slope="0.00"/>
        <vehicle id="oncoming3" x="95.86" y="1.65" angle="270.00" type="DEFAULT_VEHTYPE" speed="12.90" pos="104.14" lane="-VODUGES_beg_0" slope="0.00"/>
        <vehicle id="overtaking" x="42.48" y="-1.65" angle="90.00" type="DEFAULT_VEHTYPE" speed="0.00" pos="42.48" lane="VODUGES_beg_0" slope="0.00"/>
        <vehicle id="stopped" x="57.99" y="-1.65" angle="90.00" type="DEFAULT_VEHTYPE" speed="0.00" pos="57.99" lane="VODUGES_beg_0" slope="0.00"/>
        <vehicle id="stopped2" x="49.98" y="-1.65" angle="90.00" type="DEFAULT_VEHTYPE" speed="0.00" pos="49.98" lane="VODUGES_beg_0" slope="0.00"/>
    </timestep>
    <timestep time="15.00">
        <vehicle id="oncoming2" x="57.68" y="1.65" angle="270.00" type="DEFAULT_VEHTYPE" speed="13.68" pos="142.32" lane="-VODUGES_beg_0" slope="0.00"/>
        <vehicle id="oncoming3" x="83.21" y="1.65" angle="270.00" type="DEFAULT_VEHTYPE" speed="12.65" pos="116.79" lane="-VODUGES_beg_0" slope="0.00"/>
        <vehicle id="overtaking" x="42.48" y="-1.65" angle="90.00" type="DEFAULT_VEHTYPE" speed="0.00" pos="42.48" lane="VODUGES_beg_0" slope="0.00"/>
        <vehicle id="stopped" x="57.99" y="-1.65" angle="90.00" type="DEFAULT_VEHTYPE" speed="0.00" pos="57.99" lane="VODUGES_beg_0" slope="0.00"/>
        <vehicle id="stopped2" x="49.98" y="-1.65" angle="90.00" type="DEFAULT_VEHTYPE" speed="0.00" pos="49.98" lane="VODUGES_beg_0" slope="0.00"/>
    </timestep>
    <timestep time="16.00">
        <vehicle id="oncoming2" x="43.83" y="1.65" angle="270.00" type="DEFAULT_VEHTYPE" speed="13.85" pos="156.17" lane="-VODUGES_beg_0" slope="0.00"/>
        <vehicle id="oncoming3" x="70.21" y="1.65" angle="270.00" type="DEFAULT_VEHTYPE" speed="13.00" pos="129.79" lane="-VODUGES_beg_0" slope="0.00"/>
        <vehicle id="overtaking" x="42.48" y="-1.65" angle="90.00" type="DEFAULT_VEHTYPE" speed="0.00" pos="42.48" lane="VODUGES_beg_0" slope="0.00"/>
        <vehicle id="stopped" x="57.99" y="-1.65" angle="90.00" type="DEFAULT_VEHTYPE" speed="0.00" pos="57.99" lane="VODUGES_beg_0" slope="0.00"/>
        <vehicle id="stopped2" x="49.98" y="-1.65" angle="90.00" type="DEFAULT_VEHTYPE" speed="0.00" pos="49.98" lane="VODUGES_beg_0" slope="0.00"/>
    </timestep>
    <timestep time="17.00">
        <vehicle id="oncoming2" x="30.37" y="1.65" angle="270.00" type="DEFAULT_VEHTYPE" speed="13.46" pos="169.63" lane="-VODUGES_beg_0" slope="0.00"/>
        <vehicle id="oncoming3" x="56.49" y="1.65" angle="270.00" type="DEFAULT_VEHTYPE" speed="13.72" pos="143.51" lane="-VODUGES_beg_0" slope="0.00"/>
        <vehicle id="overtaking" x="42.48" y="-1.65" angle="90.00" type="DEFAULT_VEHTYPE" speed="0.00" pos="42.48" lane="VODUGES_beg_0" slope="0.00"/>
        <vehicle id="stopped" x="57.99" y="-1.65" angle="90.00" type="DEFAULT_VEHTYPE" speed="0.00" pos="57.99" lane="VODUGES_beg_0" slope="0.00"/>
        <vehicle id="stopped2" x="49.98" y="-1.65" angle="90.00" type="DEFAULT_VEHTYPE" speed="0.00" pos="49.98" lane="VODUGES_beg_0" slope="0.00"/>
    </timestep>
    <timestep time="18.00">
        <vehicle id="oncoming2" x="16.65" y="1.65" angle="270.00" type="DEFAULT_VEHTYPE" speed="13.73" pos="183.35" lane="-VODUGES_beg_0" slope="0.00"/>
        <vehicle id="oncoming3" x="43.13" y="1.65" angle="270.00" type="DEFAULT_VEHTYPE" speed="13.36" pos="156.87" lane="-VODUGES_beg_0" slope="0.00"/>
        <vehicle id="overtaking" x="42.48" y="-1.65" angle="90.00" type="DEFAULT_VEHTYPE" speed="0.00" pos="42.48" lane="VODUGES_beg_0" slope="0.00"/>
        <vehicle id="stopped" x="57.99" y="-1.65" angle="90.00" type="DEFAULT_VEHTYPE" speed="0.00" pos="57.99" lane="VODUGES_beg_0" slope="0.00"/>
        <vehicle id="stopped2" x="49.98" y="-1.65" angle="90.00" type="DEFAULT_VEHTYPE" speed="0.00" pos="49.98" lane="VODUGES_beg_0" slope="0.00"/>
    </timestep>
    <timestep time="19.00">
        <vehicle id="oncoming2" x="4.01" y="1.65" angle="270.00" type="DEFAULT_VEHTYPE" speed="12.64" pos="195.99" lane="-VODUGES_beg_0" slope="0.00"/>
        <vehicle id="oncoming3" x="29.59" y="1.65" angle="270.00" type="DEFAULT_VEHTYPE" speed="13.55" pos="170.41" lane="-VODUGES_beg_0" slope="0.00"/>
        <vehicle id="overtaking" x="42.48" y="1.65" angle="90.00" type="DEFAULT_VEHTYPE" speed="0.00" pos="157.52" lane="-VODUGES_beg_0" slope="0.00"/>
        <vehicle id="stopped" x="57.99" y="-1.65" angle="90.00" type="DEFAULT_VEHTYPE" speed="0.00" pos="57.99" lane="VODUGES_beg_0" slope="0.00"/>
        <vehicle id="stopped2" x="49.98" y="-1.65" angle="90.00" type="DEFAULT_VEHTYPE" speed="0.00" pos="49.98" lane="VODUGES_beg_0" slope="0.00"/>
    </timestep>
    <timestep time="20.00">
        <vehicle id="oncoming3" x="15.92" y="1.65" angle="270.00" type="DEFAULT_VEHTYPE" speed="13.67" pos="184.08" lane="-VODUGES_beg_0" slope="0.00"/>
        <vehicle id="overtaking" x="44.34" y="1.65" angle="90.00" type="DEFAULT_VEHTYPE" speed="1.86" pos="155.66" lane="-VODUGES_beg_0" slope="0.00"/>
        <vehicle id="stopped" x="57.99" y="-1.65" angle="90.00" type="DEFAULT_VEHTYPE" speed="0.00" pos="57.99" lane="VODUGES_beg_0" slope="0.00"/>
        <vehicle id="stopped2" x="49.98" y="-1.65" angle="90.00" type="DEFAULT_VEHTYPE" speed="0.00" pos="49.98" lane="VODUGES_beg_0" slope="0.00"/>
    </timestep>
    <timestep time="21.00">
        <vehicle id="oncoming3" x="2.34" y="1.65" angle="270.00" type="DEFAULT_VEHTYPE" speed="13.58" pos="197.66" lane="-VODUGES_beg_0" slope="0.00"/>
        <vehicle id="overtaking" x="47.74" y="1.65" angle="90.00" type="DEFAULT_VEHTYPE" speed="3.40" pos="152.26" lane="-VODUGES_beg_0" slope="0.00"/>
        <vehicle id="stopped" x="57.99" y="-1.65" angle="90.00" type="DEFAULT_VEHTYPE" speed="0.00" pos="57.99" lane="VODUGES_beg_0" slope="0.00"/>
        <vehicle id="stopped2" x="49.98" y="-1.65" angle="90.00" type="DEFAULT_VEHTYPE" speed="0.00" pos="49.98" lane="VODUGES_beg_0" slope="0.00"/>
    </timestep>
    <timestep time="22.00">
        <vehicle id="overtaking" x="52.88" y="1.65" angle="90.00" type="DEFAULT_VEHTYPE" speed="5.13" pos="147.12" lane="-VODUGES_beg_0" slope="0.00"/>
        <vehicle id="stopped" x="57.99" y="-1.65" angle="90.00" type="DEFAULT_VEHTYPE" speed="0.00" pos="57.99" lane="VODUGES_beg_0" slope="0.00"/>
        <vehicle id="stopped2" x="49.98" y="-1.65" angle="90.00" type="DEFAULT_VEHTYPE" speed="0.00" pos="49.98" lane="VODUGES_beg_0" slope="0.00"/>
    </timestep>
    <timestep time="23.00">
        <vehicle id="overtaking" x="59.68" y="1.65" angle="90.00" type="DEFAULT_VEHTYPE" speed="6.80" pos="140.32" lane="-VODUGES_beg_0" slope="0.00"/>
        <vehicle id="stopped" x="57.99" y="-1.65" angle="90.00" type="DEFAULT_VEHTYPE" speed="0.00" pos="57.99" lane="VODUGES_beg_0" slope="0.00"/>
        <vehicle id="stopped2" x="49.98" y="-1.65" angle="90.00" type="DEFAULT_VEHTYPE" speed="0.00" pos="49.98" lane="VODUGES_beg_0" slope="0.00"/>
    </timestep>
    <timestep time="24.00">
        <vehicle id="overtaking" x="68.31" y="1.65" angle="90.00" type="DEFAULT_VEHTYPE" speed="8.63" pos="131.69" lane="-VODUGES_beg_0" slope="0.00"/>
        <vehicle id="stopped" x="57.99" y="-1.65" angle="90.00" type="DEFAULT_VEHTYPE" speed="0.00" pos="57.99" lane="VODUGES_beg_0" slope="0.00"/>
        <vehicle id="stopped2" x="49.98" y="-1.65" angle="90.00" type="DEFAULT_VEHTYPE" speed="0.00" pos="49.98" lane="VODUGES_beg_0" slope="0.00"/>
    </timestep>
    <timestep time="25.00">
        <vehicle id="overtaking" x="78.63" y="1.65" angle="90.00" type="DEFAULT_VEHTYPE" speed="10.33" pos="121.37" lane="-VODUGES_beg_0" slope="0.00"/>
        <vehicle id="stopped" x="57.99" y="-1.65" angle="90.00" type="DEFAULT_VEHTYPE" speed="0.00" pos="57.99" lane="VODUGES_beg_0" slope="0.00"/>
        <vehicle id="stopped2" x="49.98" y="-1.65" angle="90.00" type="DEFAULT_VEHTYPE" speed="0.00" pos="49.98" lane="VODUGES_beg_0" slope="0.00"/>
    </timestep>
    <timestep time="26.00">
        <vehicle id="overtaking" x="90.35" y="-1.65" angle="90.00" type="DEFAULT_VEHTYPE" speed="11.71" pos="90.35" lane="VODUGES_beg_0" slope="0.00"/>
        <vehicle id="stopped" x="57.99" y="-1.65" angle="90.00" type="DEFAULT_VEHTYPE" speed="0.00" pos="57.99" lane="VODUGES_beg_0" slope="0.00"/>
        <vehicle id="stopped2" x="49.98" y="-1.65" angle="90.00" type="DEFAULT_VEHTYPE" speed="0.00" pos="49.98" lane="VODUGES_beg_0" slope="0.00"/>
    </timestep>
    <timestep time="27.00">
        <vehicle id="overtaking" x="103.98" y="-1.65" angle="90.00" type="DEFAULT_VEHTYPE" speed="13.64" pos="103.98" lane="VODUGES_beg_0" slope="0.00"/>
        <vehicle id="stopped" x="57.99" y="-1.65" angle="90.00" type="DEFAULT_VEHTYPE" speed="0.00" pos="57.99" lane="VODUGES_beg_0" slope="0.00"/>
        <vehicle id="stopped2" x="49.98" y="-1.65" angle="90.00" type="DEFAULT_VEHTYPE" speed="0.00" pos="49.98" lane="VODUGES_beg_0" slope="0.00"/>
    </timestep>
    <timestep time="28.00">
        <vehicle id="overtaking" x="116.80" y="-1.65" angle="90.00" type="DEFAULT_VEHTYPE" speed="12.82" pos="116.80" lane="VODUGES_beg_0" slope="0.00"/>
        <vehicle id="stopped" x="57.99" y="-1.65" angle="90.00" type="DEFAULT_VEHTYPE" speed="0.00" pos="57.99" lane="VODUGES_beg_0" slope="0.00"/>
        <vehicle id="stopped2" x="49.98" y="-1.65" angle="90.00" type="DEFAULT_VEHTYPE" speed="0.00" pos="49.98" lane="VODUGES_beg_0" slope="0.00"/>
    </timestep>
    <timestep time="29.00">
        <vehicle id="overtaking" x="129.62" y="-1.65" angle="90.00" type="DEFAULT_VEHTYPE" speed="12.81" pos="129.62" lane="VODUGES_beg_0" slope="0.00"/>
        <vehicle id="stopped" x="57.99" y="-1.65" angle="90.00" type="DEFAULT_VEHTYPE" speed="0.00" pos="57.99" lane="VODUGES_beg_0" slope="0.00"/>
        <vehicle id="stopped2" x="49.98" y="-1.65" angle="90.00" type="DEFAULT_VEHTYPE" speed="0.00" pos="49.98" lane="VODUGES_beg_0" slope="0.00"/>
    </timestep>
    <timestep time="30.00">
        <vehicle id="overtaking" x="142.44" y="-1.65" angle="90.00" type="DEFAULT_VEHTYPE" speed="12.82" pos="142.44" lane="VODUGES_beg_0" slope="0.00"/>
        <vehicle id="stopped" x="57.99" y="-1.65" angle="90.00" type="DEFAULT_VEHTYPE" speed="0.00" pos="57.99" lane="VODUGES_beg_0" slope="0.00"/>
        <vehicle id="stopped2" x="49.98" y="-1.65" angle="90.00" type="DEFAULT_VEHTYPE" speed="0.00" pos="49.98" lane="VODUGES_beg_0" slope="0.00"/>
    </timestep>
    <timestep time="31.00">
        <vehicle id="overtaking" x="155.49" y="-1.65" angle="90.00" type="DEFAULT_VEHTYPE" speed="13.05" pos="155.49" lane="VODUGES_beg_0" slope="0.00"/>
        <vehicle id="stopped" x="57.99" y="-1.65" angle="90.00" type="DEFAULT_VEHTYPE" speed="0.00" pos="57.99" lane="VODUGES_beg_0" slope="0.00"/>
        <vehicle id="stopped2" x="49.98" y="-1.65" angle="90.00" type="DEFAULT_VEHTYPE" speed="0.00" pos="49.98" lane="VODUGES_beg_0" slope="0.00"/>
    </timestep>
    <timestep time="32.00">
        <vehicle id="overtaking" x="168.66" y="-1.65" angle="90.00" type="DEFAULT_VEHTYPE" speed="13.18" pos="168.66" lane="VODUGES_beg_0" slope="0.00"/>
        <vehicle id="stopped" x="57.99" y="-1.65" angle="90.00" type="DEFAULT_VEHTYPE" speed="0.00" pos="57.99" lane="VODUGES_beg_0" slope="0.00"/>
        <vehicle id="stopped2" x="49.98" y="-1.65" angle="90.00" type="DEFAULT_VEHTYPE" speed="0.00" pos="49.98" lane="VODUGES_beg_0" slope="0.00"/>
    </timestep>
    <timestep time="33.00">
        <vehicle id="overtaking" x="181.81" y="-1.65" angle="90.00" type="DEFAULT_VEHTYPE" speed="13.15" pos="181.81" lane="VODUGES_beg_0" slope="0.00"/>
        <vehicle id="stopped" x="57.99" y="-1.65" angle="90.00" type="DEFAULT_VEHTYPE" speed="0.00" pos="57.99" lane="VODUGES_beg_0" slope="0.00"/>
        <vehicle id="stopped2" x="49.98" y="-1.65" angle="90.00" type="DEFAULT_VEHTYPE" speed="0.00" pos="49.98" lane="VODUGES_beg_0" slope="0.00"/>
    </timestep>
    <timestep time="34.00">
        <vehicle id="overtaking" x="194.51" y="-1.65" angle="90.00" type="DEFAULT_VEHTYPE" speed="12.70" pos="194.51" lane="VODUGES_beg_0" slope="0.00"/>
        <vehicle id="stopped" x="57.99" y="-1.65" angle="90.00" type="DEFAULT_VEHTYPE" speed="0.00" pos="57.99" lane="VODUGES_beg_0" slope="0.00"/>
        <vehicle id="stopped2" x="49.98" y="-1.65" angle="90.00" type="DEFAULT_VEHTYPE" speed="0.00" pos="49.98" lane="VODUGES_beg_0" slope="0.00"/>
    </timestep>
    <timestep time="35.00">
        <vehicle id="stopped" x="57.99" y="-1.65" angle="90.00" type="DEFAULT_VEHTYPE" speed="0.00" pos="57.99" lane="VODUGES_beg_0" slope="0.00"/>
        <vehicle id="stopped2" x="49.98" y="-1.65" angle="90.00" type="DEFAULT_VEHTYPE" speed="0.00" pos="49.98" lane="VODUGES_beg_0" slope="0.00"/>
    </timestep>
    <timestep time="36.00">
        <vehicle id="stopped" x="57.99" y="-1.65" angle="90.00" type="DEFAULT_VEHTYPE" speed="0.00" pos="57.99" lane="VODUGES_beg_0" slope="0.00"/>
        <vehicle id="stopped2" x="49.98" y="-1.65" angle="90.00" type="DEFAULT_VEHTYPE" speed="0.00" pos="49.98" lane="VODUGES_beg_0" slope="0.00"/>
    </timestep>
    <timestep time="37.00">
        <vehicle id="stopped" x="57.99" y="-1.65" angle="90.00" type="DEFAULT_VEHTYPE" speed="0.00" pos="57.99" lane="VODUGES_beg_0" slope="0.00"/>
        <vehicle id="stopped2" x="49.98" y="-1.65" angle="90.00" type="DEFAULT_VEHTYPE" speed="0.00" pos="49.98" lane="VODUGES_beg_0" slope="0.00"/>
    </timestep>
    <timestep time="38.00">
        <vehicle id="stopped" x="57.99" y="-1.65" angle="90.00" type="DEFAULT_VEHTYPE" speed="0.00" pos="57.99" lane="VODUGES_beg_0" slope="0.00"/>
        <vehicle id="stopped2" x="49.98" y="-1.65" angle="90.00" type="DEFAULT_VEHTYPE" speed="0.00" pos="49.98" lane="VODUGES_beg_0" slope="0.00"/>
    </timestep>
    <timestep time="39.00">
        <vehicle id="stopped" x="57.99" y="-1.65" angle="90.00" type="DEFAULT_VEHTYPE" speed="0.00" pos="57.99" lane="VODUGES_beg_0" slope="0.00"/>
        <vehicle id="stopped2" x="49.98" y="-1.65" angle="90.00" type="DEFAULT_VEHTYPE" speed="0.00" pos="49.98" lane="VODUGES_beg_0" slope="0.00"/>
    </timestep>
    <timestep time="40.00">
        <vehicle id="stopped" x="57.99" y="-1.65" angle="90.00" type="DEFAULT_VEHTYPE" speed="0.00" pos="57.99" lane="VODUGES_beg_0" slope="0.00"/>
        <vehicle id="stopped2" x="49.98" y="-1.65" angle="90.00" type="DEFAULT_VEHTYPE" speed="0.00" pos="49.98" lane="VODUGES_beg_0" slope="0.00"/>
    </timestep>
    <timestep time="41.00">
        <vehicle id="stopped" x="57.99" y="-1.65" angle="90.00" type="DEFAULT_VEHTYPE" speed="0.00" pos="57.99" lane="VODUGES_beg_0" slope="0.00"/>
        <vehicle id="stopped2" x="49.98" y="-1.65" angle="90.00" type="DEFAULT_VEHTYPE" speed="0.00" pos="49.98" lane="VODUGES_beg_0" slope="0.00"/>
    </timestep>
    <timestep time="42.00">
        <vehicle id="stopped" x="57.99" y="-1.65" angle="90.00" type="DEFAULT_VEHTYPE" speed="0.00" pos="57.99" lane="VODUGES_beg_0" slope="0.00"/>
        <vehicle id="stopped2" x="49.98" y="-1.65" angle="90.00" type="DEFAULT_VEHTYPE" speed="0.00" pos="49.98" lane="VODUGES_beg_0" slope="0.00"/>
    </timestep>
    <timestep time="43.00">
        <vehicle id="stopped" x="57.99" y="-1.65" angle="90.00" type="DEFAULT_VEHTYPE" speed="0.00" pos="57.99" lane="VODUGES_beg_0" slope="0.00"/>
        <vehicle id="stopped2" x="49.98" y="-1.65" angle="90.00" type="DEFAULT_VEHTYPE" speed="0.00" pos="49.98" lane="VODUGES_beg_0" slope="0.00"/>
    </timestep>
    <timestep time="44.00">
        <vehicle id="stopped" x="57.99" y="-1.65" angle="90.00" type="DEFAULT_VEHTYPE" speed="0.00" pos="57.99" lane="VODUGES_beg_0" slope="0.00"/>
        <vehicle id="stopped2" x="49.98" y="-1.65" angle="90.00" type="DEFAULT_VEHTYPE" speed="0.00" pos="49.98" lane="VODUGES_beg_0" slope="0.00"/>
    </timestep>
    <timestep time="45.00">
        <vehicle id="stopped" x="57.99" y="-1.65" angle="90.00" type="DEFAULT_VEHTYPE" speed="0.00" pos="57.99" lane="VODUGES_beg_0" slope="0.00"/>
        <vehicle id="stopped2" x="49.98" y="-1.65" angle="90.00" type="DEFAULT_VEHTYPE" speed="0.00" pos="49.98" lane="VODUGES_beg_0" slope="0.00"/>
    </timestep>
    <timestep time="46.00">
        <vehicle id="stopped" x="57.99" y="-1.65" angle="90.00" type="DEFAULT_VEHTYPE" speed="0.00" pos="57.99" lane="VODUGES_beg_0" slope="0.00"/>
        <vehicle id="stopped2" x="49.98" y="-1.65" angle="90.00" type="DEFAULT_VEHTYPE" speed="0.00" pos="49.98" lane="VODUGES_beg_0" slope="0.00"/>
    </timestep>
    <timestep time="47.00">
        <vehicle id="stopped" x="57.99" y="-1.65" angle="90.00" type="DEFAULT_VEHTYPE" speed="0.00" pos="57.99" lane="VODUGES_beg_0" slope="0.00"/>
        <vehicle id="stopped2" x="49.98" y="-1.65" angle="90.00" type="DEFAULT_VEHTYPE" speed="0.00" pos="49.98" lane="VODUGES_beg_0" slope="0.00"/>
    </timestep>
    <timestep time="48.00">
        <vehicle id="stopped" x="57.99" y="-1.65" angle="90.00" type="DEFAULT_VEHTYPE" speed="0.00" pos="57.99" lane="VODUGES_beg_0" slope="0.00"/>
        <vehicle id="stopped2" x="49.98" y="-1.65" angle="90.00" type="DEFAULT_VEHTYPE" speed="0.00" pos="49.98" lane="VODUGES_beg_0" slope="0.00"/>
    </timestep>
    <timestep time="49.00">
        <vehicle id="stopped" x="57.99" y="-1.65" angle="90.00" type="DEFAULT_VEHTYPE" speed="0.00" pos="57.99" lane="VODUGES_beg_0" slope="0.00"/>
        <vehicle id="stopped2" x="49.98" y="-1.65" angle="90.00" type="DEFAULT_VEHTYPE" speed="0.00" pos="49.98" lane="VODUGES_beg_0" slope="0.00"/>
    </timestep>
    <timestep time="50.00">
        <vehicle id="stopped" x="57.99" y="-1.65" angle="90.00" type="DEFAULT_VEHTYPE" speed="0.00" pos="57.99" lane="VODUGES_beg_0" slope="0.00"/>