<?xml version="1.0" encoding="UTF-8"?>

<!-- generated on Mon Nov 12 14:32:54 2018 by Eclipse SUMO Version v1_0_1+0617-70ae16b
This data file and the accompanying materials
are made available under the terms of the Eclipse Public License v2.0
which accompanies this distribution, and is available at
http://www.eclipse.org/legal/epl-v20.html
SPDX-License-Identifier: EPL-2.0
<configuration xmlns:xsi="http://www.w3.org/2001/XMLSchema-instance" xsi:noNamespaceSchemaLocation="http://sumo.dlr.de/xsd/sumoConfiguration.xsd">

    <input>
        <net-file value="net.net.xml"/>
        <route-files value="input_routes.rou.xml"/>
    </input>

    <output>
        <write-license value="true"/>
        <tripinfo-output value="tripinfos.xml"/>
    </output>

    <time>
        <step-length value="0.1"/>
    </time>

    <processing>
        <step-method.ballistic value="true"/>
        <lateral-resolution value="0.8"/>
        <default.action-step-length value="1"/>
        <default.speeddev value="0"/>
    </processing>

    <report>
        <xml-validation value="never"/>
        <no-step-log value="true"/>
    </report>

    <gui_only>
        <tracker-interval value="0.1"/>
    </gui_only>

</configuration>
-->

<tripinfos xmlns:xsi="http://www.w3.org/2001/XMLSchema-instance" xsi:noNamespaceSchemaLocation="http://sumo.dlr.de/xsd/tripinfo_file.xsd">
    <tripinfo id="cars.0" depart="0.00" departLane="beg_0" departPos="99.90" departPosLat="1.80" departSpeed="0.00" departDelay="0.00" arrival="10.20" arrivalLane="end_0" arrivalPos="100.00" arrivalPosLat="0.00" arrivalSpeed="14.82" duration="10.20" routeLength="100.10" waitingTime="0.00" waitingCount="0" stopTime="0.00" timeLoss="3.72" rerouteNo="0" devices="tripinfo_cars.0" vType="car" speedFactor="1.12" vaporized=""/>
    <tripinfo id="cars.1" depart="0.10" departLane="beg_0" departPos="92.31" departPosLat="0.98" departSpeed="0.00" departDelay="0.00" arrival="13.10" arrivalLane="end_0" arrivalPos="100.00" arrivalPosLat="0.00" arrivalSpeed="12.02" duration="13.00" routeLength="107.69" waitingTime="0.50" waitingCount="1" stopTime="0.00" timeLoss="4.11" rerouteNo="0" devices="tripinfo_cars.1" vType="car" speedFactor="0.88" vaporized=""/>
    <tripinfo id="cars.2" depart="0.20" departLane="beg_0" departPos="84.71" departPosLat="-2.09" departSpeed="0.00" departDelay="0.00" arrival="14.80" arrivalLane="end_0" arrivalPos="100.00" arrivalPosLat="-0.00" arrivalSpeed="13.37" duration="14.60" routeLength="115.29" waitingTime="0.90" waitingCount="2" stopTime="0.00" timeLoss="6.40" rerouteNo="0" devices="tripinfo_cars.2" vType="car" speedFactor="1.02" vaporized=""/>
    <tripinfo id="cars.3" depart="0.30" departLane="beg_0" departPos="77.11" departPosLat="-0.04" departSpeed="0.00" departDelay="0.00" arrival="16.40" arrivalLane="end_0" arrivalPos="100.00" arrivalPosLat="0.00" arrivalSpeed="15.04" duration="16.10" routeLength="122.89" waitingTime="1.30" waitingCount="2" stopTime="0.00" timeLoss="8.45" rerouteNo="0" devices="tripinfo_cars.3" vType="car" speedFactor="1.17" vaporized=""/>
    <tripinfo id="cars.4" depart="0.40" departLane="beg_0" departPos="69.52" departPosLat="0.41" departSpeed="0.00" departDelay="0.00" arrival="18.20" arrivalLane="end_0" arrivalPos="100.00" arrivalPosLat="0.00" arrivalSpeed="13.67" duration="17.80" routeLength="130.48" waitingTime="1.60" waitingCount="2" stopTime="0.00" timeLoss="8.82" rerouteNo="0" devices="tripinfo_cars.4" vType="car" speedFactor="1.06" vaporized=""/>
    <tripinfo id="cars.6" depart="0.60" departLane="beg_0" departPos="54.32" departPosLat="1.12" departSpeed="0.00" departDelay="0.00" arrival="19.80" arrivalLane="end_0" arrivalPos="100.00" arrivalPosLat="0.00" arrivalSpeed="14.18" duration="19.20" routeLength="145.68" waitingTime="0.50" waitingCount="1" stopTime="0.00" timeLoss="9.55" rerouteNo="0" devices="tripinfo_cars.6" vType="car" speedFactor="1.09" vaporized=""/>
    <tripinfo id="cars.5" depart="0.50" departLane="beg_0" departPos="61.92" departPosLat="-2.10" departSpeed="0.00" departDelay="0.00" arrival="26.40" arrivalLane="end_0" arrivalPos="100.00" arrivalPosLat="0.00" arrivalSpeed="8.11" duration="25.90" routeLength="138.08" waitingTime="2.60" waitingCount="4" stopTime="0.00" timeLoss="10.85" rerouteNo="0" devices="tripinfo_cars.5" vType="car" speedFactor="0.66" vaporized=""/>
    <tripinfo id="cars.7" depart="0.70" departLane="beg_0" departPos="46.73" departPosLat="-1.16" departSpeed="0.00" departDelay="0.00" arrival="28.30" arrivalLane="end_0" arrivalPos="100.00" arrivalPosLat="0.00" arrivalSpeed="10.04" duration="27.60" routeLength="153.27" waitingTime="0.60" waitingCount="2" stopTime="0.00" timeLoss="13.27" rerouteNo="0" devices="tripinfo_cars.7" vType="car" speedFactor="0.77" vaporized=""/>
    <tripinfo id="cars.8" depart="0.80" departLane="beg_0" departPos="39.14" departPosLat="0.21" departSpeed="0.00" departDelay="0.00" arrival="30.20" arrivalLane="end_0" arrivalPos="100.00" arrivalPosLat="0.00" arrivalSpeed="11.77" duration="29.40" routeLength="160.86" waitingTime="1.20" waitingCount="2" stopTime="0.00" timeLoss="16.04" rerouteNo="0" devices="tripinfo_cars.8" vType="car" speedFactor="0.88" vaporized=""/>
    <tripinfo id="cars.9" depart="0.90" departLane="beg_0" departPos="31.54" departPosLat="1.13" departSpeed="0.00" departDelay="0.00" arrival="32.40" arrivalLane="end_0" arrivalPos="100.00" arrivalPosLat="0.00" arrivalSpeed="9.09" duration="31.50" routeLength="168.46" waitingTime="1.10" waitingCount="3" stopTime="0.00" timeLoss="14.47" rerouteNo="0" devices="tripinfo_cars.9" vType="car" speedFactor="0.71" vaporized=""/>
</tripinfos>
