<?xml version="1.0" encoding="UTF-8"?>

<!-- generated on Mon Nov 12 14:33:54 2018 by Eclipse SUMO Version v1_0_1+0617-70ae16b
This data file and the accompanying materials
are made available under the terms of the Eclipse Public License v2.0
which accompanies this distribution, and is available at
http://www.eclipse.org/legal/epl-v20.html
SPDX-License-Identifier: EPL-2.0
<configuration xmlns:xsi="http://www.w3.org/2001/XMLSchema-instance" xsi:noNamespaceSchemaLocation="http://sumo.dlr.de/xsd/sumoConfiguration.xsd">

    <input>
        <net-file value="net.net.xml"/>
        <route-files value="input_routes.rou.xml"/>
    </input>

    <output>
        <write-license value="true"/>
        <fcd-output value="fcd.xml"/>
        <tripinfo-output value="tripinfos.xml"/>
    </output>

    <time>
        <step-length value="0.2"/>
    </time>

    <processing>
        <default.speeddev value="0"/>
    </processing>

    <report>
        <xml-validation value="never"/>
        <no-step-log value="true"/>
    </report>

    <gui_only>
        <tracker-interval value="0.2"/>
    </gui_only>

</configuration>
-->

<fcd-export xmlns:xsi="http://www.w3.org/2001/XMLSchema-instance" xsi:noNamespaceSchemaLocation="http://sumo.dlr.de/xsd/fcd_file.xsd">
    <timestep time="0.00">
        <vehicle id="oncoming1" x="100.00" y="1.65" angle="270.00" type="DEFAULT_VEHTYPE" speed="0.00" pos="100.00" lane="-VODUGES_beg_0" slope="0.00"/>
        <vehicle id="oncoming2" x="200.00" y="1.65" angle="270.00" type="DEFAULT_VEHTYPE" speed="0.00" pos="0.00" lane="-VODUGES_beg_0" slope="0.00"/>
        <vehicle id="overtaking" x="0.00" y="-1.65" angle="90.00" type="DEFAULT_VEHTYPE" speed="0.00" pos="0.00" lane="VODUGES_beg_0" slope="0.00"/>
        <vehicle id="stopped" x="40.00" y="-1.65" angle="90.00" type="DEFAULT_VEHTYPE" speed="0.00" pos="40.00" lane="VODUGES_beg_0" slope="0.00"/>
    </timestep>
    <timestep time="0.20">
        <vehicle id="oncoming1" x="99.91" y="1.65" angle="270.00" type="DEFAULT_VEHTYPE" speed="0.47" pos="100.09" lane="-VODUGES_beg_0" slope="0.00"/>
        <vehicle id="oncoming2" x="199.90" y="1.65" angle="270.00" type="DEFAULT_VEHTYPE" speed="0.48" pos="0.10" lane="-VODUGES_beg_0" slope="0.00"/>
        <vehicle id="overtaking" x="0.10" y="-1.65" angle="90.00" type="DEFAULT_VEHTYPE" speed="0.50" pos="0.10" lane="VODUGES_beg_0" slope="0.00"/>
        <vehicle id="stopped" x="40.10" y="-1.65" angle="90.00" type="DEFAULT_VEHTYPE" speed="0.52" pos="40.10" lane="VODUGES_beg_0" slope="0.00"/>
    </timestep>
    <timestep time="0.40">
        <vehicle id="oncoming1" x="99.71" y="1.65" angle="270.00" type="DEFAULT_VEHTYPE" speed="0.99" pos="100.29" lane="-VODUGES_beg_0" slope="0.00"/>
        <vehicle id="oncoming2" x="199.71" y="1.65" angle="270.00" type="DEFAULT_VEHTYPE" speed="0.95" pos="0.29" lane="-VODUGES_beg_0" slope="0.00"/>
        <vehicle id="overtaking" x="0.29" y="-1.65" angle="90.00" type="DEFAULT_VEHTYPE" speed="0.96" pos="0.29" lane="VODUGES_beg_0" slope="0.00"/>
        <vehicle id="stopped" x="40.30" y="-1.65" angle="90.00" type="DEFAULT_VEHTYPE" speed="0.97" pos="40.30" lane="VODUGES_beg_0" slope="0.00"/>
    </timestep>
    <timestep time="0.60">
        <vehicle id="oncoming1" x="99.42" y="1.65" angle="270.00" type="DEFAULT_VEHTYPE" speed="1.42" pos="100.58" lane="-VODUGES_beg_0" slope="0.00"/>
        <vehicle id="oncoming2" x="199.42" y="1.65" angle="270.00" type="DEFAULT_VEHTYPE" speed="1.47" pos="0.58" lane="-VODUGES_beg_0" slope="0.00"/>
        <vehicle id="overtaking" x="0.56" y="-1.65" angle="90.00" type="DEFAULT_VEHTYPE" speed="1.34" pos="0.56" lane="VODUGES_beg_0" slope="0.00"/>
        <vehicle id="stopped" x="40.57" y="-1.65" angle="90.00" type="DEFAULT_VEHTYPE" speed="1.38" pos="40.57" lane="VODUGES_beg_0" slope="0.00"/>
    </timestep>
    <timestep time="0.80">
        <vehicle id="oncoming1" x="99.06" y="1.65" angle="270.00" type="DEFAULT_VEHTYPE" speed="1.80" pos="100.94" lane="-VODUGES_beg_0" slope="0.00"/>
        <vehicle id="oncoming2" x="199.03" y="1.65" angle="270.00" type="DEFAULT_VEHTYPE" speed="1.94" pos="0.97" lane="-VODUGES_beg_0" slope="0.00"/>
        <vehicle id="overtaking" x="0.90" y="-1.65" angle="90.00" type="DEFAULT_VEHTYPE" speed="1.71" pos="0.90" lane="VODUGES_beg_0" slope="0.00"/>
        <vehicle id="stopped" x="40.94" y="-1.65" angle="90.00" type="DEFAULT_VEHTYPE" speed="1.85" pos="40.94" lane="VODUGES_beg_0" slope="0.00"/>
    </timestep>
    <timestep time="1.00">
        <vehicle id="oncoming1" x="98.63" y="1.65" angle="270.00" type="DEFAULT_VEHTYPE" speed="2.19" pos="101.37" lane="-VODUGES_beg_0" slope="0.00"/>
        <vehicle id="oncoming2" x="198.58" y="1.65" angle="270.00" type="DEFAULT_VEHTYPE" speed="2.27" pos="1.42" lane="-VODUGES_beg_0" slope="0.00"/>
        <vehicle id="overtaking" x="1.32" y="-1.65" angle="90.00" type="DEFAULT_VEHTYPE" speed="2.08" pos="1.32" lane="VODUGES_beg_0" slope="0.00"/>
        <vehicle id="stopped" x="41.41" y="-1.65" angle="90.00" type="DEFAULT_VEHTYPE" speed="2.35" pos="41.41" lane="VODUGES_beg_0" slope="0.00"/>
    </timestep>
    <timestep time="1.20">
        <vehicle id="oncoming1" x="98.08" y="1.65" angle="270.00" type="DEFAULT_VEHTYPE" speed="2.71" pos="101.92" lane="-VODUGES_beg_0" slope="0.00"/>
        <vehicle id="oncoming2" x="198.05" y="1.65" angle="270.00" type="DEFAULT_VEHTYPE" speed="2.62" pos="1.95" lane="-VODUGES_beg_0" slope="0.00"/>
        <vehicle id="overtaking" x="1.80" y="-1.65" angle="90.00" type="DEFAULT_VEHTYPE" speed="2.40" pos="1.80" lane="VODUGES_beg_0" slope="0.00"/>
        <vehicle id="stopped" x="41.96" y="-1.65" angle="90.00" type="DEFAULT_VEHTYPE" speed="2.75" pos="41.96" lane="VODUGES_beg_0" slope="0.00"/>
    </timestep>
    <timestep time="1.40">
        <vehicle id="oncoming1" x="97.46" y="1.65" angle="270.00" type="DEFAULT_VEHTYPE" speed="3.11" pos="102.54" lane="-VODUGES_beg_0" slope="0.00"/>
        <vehicle id="oncoming2" x="197.45" y="1.65" angle="270.00" type="DEFAULT_VEHTYPE" speed="3.02" pos="2.55" lane="-VODUGES_beg_0" slope="0.00"/>
        <vehicle id="overtaking" x="2.34" y="-1.65" angle="90.00" type="DEFAULT_VEHTYPE" speed="2.71" pos="2.34" lane="VODUGES_beg_0" slope="0.00"/>
        <vehicle id="stopped" x="42.60" y="-1.65" angle="90.00" type="DEFAULT_VEHTYPE" speed="3.20" pos="42.60" lane="VODUGES_beg_0" slope="0.00"/>
    </timestep>
    <timestep time="1.60">
        <vehicle id="oncoming1" x="96.77" y="1.65" angle="270.00" type="DEFAULT_VEHTYPE" speed="3.48" pos="103.23" lane="-VODUGES_beg_0" slope="0.00"/>
        <vehicle id="oncoming2" x="196.75" y="1.65" angle="270.00" type="DEFAULT_VEHTYPE" speed="3.47" pos="3.25" lane="-VODUGES_beg_0" slope="0.00"/>
        <vehicle id="overtaking" x="2.95" y="-1.65" angle="90.00" type="DEFAULT_VEHTYPE" speed="3.05" pos="2.95" lane="VODUGES_beg_0" slope="0.00"/>
        <vehicle id="stopped" x="43.32" y="-1.65" angle="90.00" type="DEFAULT_VEHTYPE" speed="3.60" pos="43.32" lane="VODUGES_beg_0" slope="0.00"/>
    </timestep>
    <timestep time="1.80">
        <vehicle id="oncoming1" x="95.97" y="1.65" angle="270.00" type="DEFAULT_VEHTYPE" speed="3.98" pos="104.03" lane="-VODUGES_beg_0" slope="0.00"/>
        <vehicle id="oncoming2" x="196.00" y="1.65" angle="270.00" type="DEFAULT_VEHTYPE" speed="3.77" pos="4.00" lane="-VODUGES_beg_0" slope="0.00"/>
        <vehicle id="overtaking" x="3.64" y="-1.65" angle="90.00" type="DEFAULT_VEHTYPE" speed="3.43" pos="3.64" lane="VODUGES_beg_0" slope="0.00"/>
        <vehicle id="stopped" x="44.13" y="-1.65" angle="90.00" type="DEFAULT_VEHTYPE" speed="4.03" pos="44.13" lane="VODUGES_beg_0" slope="0.00"/>
    </timestep>
    <timestep time="2.00">
        <vehicle id="oncoming1" x="95.09" y="1.65" angle="270.00" type="DEFAULT_VEHTYPE" speed="4.42" pos="104.91" lane="-VODUGES_beg_0" slope="0.00"/>
        <vehicle id="oncoming2" x="195.18" y="1.65" angle="270.00" type="DEFAULT_VEHTYPE" speed="4.11" pos="4.82" lane="-VODUGES_beg_0" slope="0.00"/>
        <vehicle id="overtaking" x="4.40" y="-1.65" angle="90.00" type="DEFAULT_VEHTYPE" speed="3.82" pos="4.40" lane="VODUGES_beg_0" slope="0.00"/>
        <vehicle id="stopped" x="44.94" y="-1.65" angle="90.00" type="DEFAULT_VEHTYPE" speed="4.05" pos="44.94" lane="VODUGES_beg_0" slope="0.00"/>
    </timestep>
    <timestep time="2.20">
        <vehicle id="oncoming1" x="94.10" y="1.65" angle="270.00" type="DEFAULT_VEHTYPE" speed="4.93" pos="105.90" lane="-VODUGES_beg_0" slope="0.00"/>
        <vehicle id="oncoming2" x="194.28" y="1.65" angle="270.00" type="DEFAULT_VEHTYPE" speed="4.49" pos="5.72" lane="-VODUGES_beg_0" slope="0.00"/>
        <vehicle id="overtaking" x="5.23" y="-1.65" angle="90.00" type="DEFAULT_VEHTYPE" speed="4.15" pos="5.23" lane="VODUGES_beg_0" slope="0.00"/>
        <vehicle id="stopped" x="45.70" y="-1.65" angle="90.00" type="DEFAULT_VEHTYPE" speed="3.79" pos="45.70" lane="VODUGES_beg_0" slope="0.00"/>
    </timestep>
    <timestep time="2.40">
        <vehicle id="oncoming1" x="93.03" y="1.65" angle="270.00" type="DEFAULT_VEHTYPE" speed="5.37" pos="106.97" lane="-VODUGES_beg_0" slope="0.00"/>
        <vehicle id="oncoming2" x="193.31" y="1.65" angle="270.00" type="DEFAULT_VEHTYPE" speed="4.85" pos="6.69" lane="-VODUGES_beg_0" slope="0.00"/>
        <vehicle id="overtaking" x="6.11" y="-1.65" angle="90.00" type="DEFAULT_VEHTYPE" speed="4.43" pos="6.11" lane="VODUGES_beg_0" slope="0.00"/>
        <vehicle id="stopped" x="46.36" y="-1.65" angle="90.00" type="DEFAULT_VEHTYPE" speed="3.31" pos="46.36" lane="VODUGES_beg_0" slope="0.00"/>
    </timestep>
    <timestep time="2.60">
        <vehicle id="oncoming1" x="91.90" y="1.65" angle="270.00" type="DEFAULT_VEHTYPE" speed="5.64" pos="108.10" lane="-VODUGES_beg_0" slope="0.00"/>
        <vehicle id="oncoming2" x="192.28" y="1.65" angle="270.00" type="DEFAULT_VEHTYPE" speed="5.16" pos="7.72" lane="-VODUGES_beg_0" slope="0.00"/>
        <vehicle id="overtaking" x="7.10" y="-1.65" angle="90.00" type="DEFAULT_VEHTYPE" speed="4.91" pos="7.10" lane="VODUGES_beg_0" slope="0.00"/>
        <vehicle id="stopped" x="46.94" y="-1.65" angle="90.00" type="DEFAULT_VEHTYPE" speed="2.90" pos="46.94" lane="VODUGES_beg_0" slope="0.00"/>
    </timestep>
    <timestep time="2.80">
        <vehicle id="oncoming1" x="90.71" y="1.65" angle="270.00" type="DEFAULT_VEHTYPE" speed="5.93" pos="109.29" lane="-VODUGES_beg_0" slope="0.00"/>
        <vehicle id="oncoming2" x="191.16" y="1.65" angle="270.00" type="DEFAULT_VEHTYPE" speed="5.57" pos="8.84" lane="-VODUGES_beg_0" slope="0.00"/>
        <vehicle id="overtaking" x="8.17" y="-1.65" angle="90.00" type="DEFAULT_VEHTYPE" speed="5.39" pos="8.17" lane="VODUGES_beg_0" slope="0.00"/>
        <vehicle id="stopped" x="47.44" y="-1.65" angle="90.00" type="DEFAULT_VEHTYPE" speed="2.52" pos="47.44" lane="VODUGES_beg_0" slope="0.00"/>
    </timestep>
    <timestep time="3.00">
        <vehicle id="oncoming1" x="89.45" y="1.65" angle="270.00" type="DEFAULT_VEHTYPE" speed="6.31" pos="110.55" lane="-VODUGES_beg_0" slope="0.00"/>
        <vehicle id="oncoming2" x="189.96" y="1.65" angle="270.00" type="DEFAULT_VEHTYPE" speed="6.03" pos="10.04" lane="-VODUGES_beg_0" slope="0.00"/>
        <vehicle id="overtaking" x="9.33" y="-1.65" angle="90.00" type="DEFAULT_VEHTYPE" speed="5.76" pos="9.33" lane="VODUGES_beg_0" slope="0.00"/>
        <vehicle id="stopped" x="47.87" y="-1.65" angle="90.00" type="DEFAULT_VEHTYPE" speed="2.14" pos="47.87" lane="VODUGES_beg_0" slope="0.00"/>
    </timestep>
    <timestep time="3.20">
        <vehicle id="oncoming1" x="88.08" y="1.65" angle="270.00" type="DEFAULT_VEHTYPE" speed="6.82" pos="111.92" lane="-VODUGES_beg_0" slope="0.00"/>
        <vehicle id="oncoming2" x="188.66" y="1.65" angle="270.00" type="DEFAULT_VEHTYPE" speed="6.47" pos="11.34" lane="-VODUGES_beg_0" slope="0.00"/>
        <vehicle id="overtaking" x="10.54" y="-1.65" angle="90.00" type="DEFAULT_VEHTYPE" speed="6.07" pos="10.54" lane="VODUGES_beg_0" slope="0.00"/>
        <vehicle id="stopped" x="48.25" y="-1.65" angle="90.00" type="DEFAULT_VEHTYPE" speed="1.89" pos="48.25" lane="VODUGES_beg_0" slope="0.00"/>
    </timestep>
    <timestep time="3.40">
        <vehicle id="oncoming1" x="86.66" y="1.65" angle="270.00" type="DEFAULT_VEHTYPE" speed="7.14" pos="113.34" lane="-VODUGES_beg_0" slope="0.00"/>
        <vehicle id="oncoming2" x="187.27" y="1.65" angle="270.00" type="DEFAULT_VEHTYPE" speed="6.95" pos="12.73" lane="-VODUGES_beg_0" slope="0.00"/>
        <vehicle id="overtaking" x="11.81" y="-1.65" angle="90.00" type="DEFAULT_VEHTYPE" speed="6.37" pos="11.81" lane="VODUGES_beg_0" slope="0.00"/>
        <vehicle id="stopped" x="48.56" y="-1.65" angle="90.00" type="DEFAULT_VEHTYPE" speed="1.55" pos="48.56" lane="VODUGES_beg_0" slope="0.00"/>
    </timestep>
    <timestep time="3.60">
        <vehicle id="oncoming1" x="85.17" y="1.65" angle="270.00" type="DEFAULT_VEHTYPE" speed="7.42" pos="114.83" lane="-VODUGES_beg_0" slope="0.00"/>
        <vehicle id="oncoming2" x="185.78" y="1.65" angle="270.00" type="DEFAULT_VEHTYPE" speed="7.46" pos="14.22" lane="-VODUGES_beg_0" slope="0.00"/>
        <vehicle id="overtaking" x="13.17" y="-1.65" angle="90.00" type="DEFAULT_VEHTYPE" speed="6.76" pos="13.17" lane="VODUGES_beg_0" slope="0.00"/>
        <vehicle id="stopped" x="48.80" y="-1.65" angle="90.00" type="DEFAULT_VEHTYPE" speed="1.22" pos="48.80" lane="VODUGES_beg_0" slope="0.00"/>
    </timestep>
    <timestep time="3.80">
        <vehicle id="oncoming1" x="83.62" y="1.65" angle="270.00" type="DEFAULT_VEHTYPE" speed="7.76" pos="116.38" lane="-VODUGES_beg_0" slope="0.00"/>
        <vehicle id="oncoming2" x="184.20" y="1.65" angle="270.00" type="DEFAULT_VEHTYPE" speed="7.90" pos="15.80" lane="-VODUGES_beg_0" slope="0.00"/>
        <vehicle id="overtaking" x="14.61" y="-1.65" angle="90.00" type="DEFAULT_VEHTYPE" speed="7.23" pos="14.61" lane="VODUGES_beg_0" slope="0.00"/>
        <vehicle id="stopped" x="49.03" y="-1.65" angle="90.00" type="DEFAULT_VEHTYPE" speed="1.14" pos="49.03" lane="VODUGES_beg_0" slope="0.00"/>
    </timestep>
    <timestep time="4.00">
        <vehicle id="oncoming1" x="81.97" y="1.65" angle="270.00" type="DEFAULT_VEHTYPE" speed="8.24" pos="118.03" lane="-VODUGES_beg_0" slope="0.00"/>
        <vehicle id="oncoming2" x="182.52" y="1.65" angle="270.00" type="DEFAULT_VEHTYPE" speed="8.38" pos="17.48" lane="-VODUGES_beg_0" slope="0.00"/>
        <vehicle id="overtaking" x="16.12" y="-1.65" angle="90.00" type="DEFAULT_VEHTYPE" speed="7.53" pos="16.12" lane="VODUGES_beg_0" slope="0.00"/>
        <vehicle id="stopped" x="49.21" y="-1.65" angle="90.00" type="DEFAULT_VEHTYPE" speed="0.89" pos="49.21" lane="VODUGES_beg_0" slope="0.00"/>
    </timestep>
    <timestep time="4.20">
        <vehicle id="oncoming1" x="80.24" y="1.65" angle="270.00" type="DEFAULT_VEHTYPE" speed="8.66" pos="119.76" lane="-VODUGES_beg_0" slope="0.00"/>
        <vehicle id="oncoming2" x="180.79" y="1.65" angle="270.00" type="DEFAULT_VEHTYPE" speed="8.65" pos="19.21" lane="-VODUGES_beg_0" slope="0.00"/>
        <vehicle id="overtaking" x="17.68" y="-1.65" angle="90.00" type="DEFAULT_VEHTYPE" speed="7.80" pos="17.68" lane="VODUGES_beg_0" slope="0.00"/>
        <vehicle id="stopped" x="49.37" y="-1.65" angle="90.00" type="DEFAULT_VEHTYPE" speed="0.84" pos="49.37" lane="VODUGES_beg_0" slope="0.00"/>
    </timestep>
    <timestep time="4.40">
        <vehicle id="oncoming1" x="78.42" y="1.65" angle="270.00" type="DEFAULT_VEHTYPE" speed="9.11" pos="121.58" lane="-VODUGES_beg_0" slope="0.00"/>
        <vehicle id="oncoming2" x="178.97" y="1.65" angle="270.00" type="DEFAULT_VEHTYPE" speed="9.12" pos="21.03" lane="-VODUGES_beg_0" slope="0.00"/>
        <vehicle id="overtaking" x="19.31" y="-1.65" angle="90.00" type="DEFAULT_VEHTYPE" speed="8.16" pos="19.31" lane="VODUGES_beg_0" slope="0.00"/>
        <vehicle id="stopped" x="49.54" y="-1.65" angle="90.00" type="DEFAULT_VEHTYPE" speed="0.84" pos="49.54" lane="VODUGES_beg_0" slope="0.00"/>
    </timestep>
    <timestep time="4.60">
        <vehicle id="oncoming1" x="76.50" y="1.65" angle="270.00" type="DEFAULT_VEHTYPE" speed="9.59" pos="123.50" lane="-VODUGES_beg_0" slope="0.00"/>
        <vehicle id="oncoming2" x="177.07" y="1.65" angle="270.00" type="DEFAULT_VEHTYPE" speed="9.49" pos="22.93" lane="-VODUGES_beg_0" slope="0.00"/>
        <vehicle id="overtaking" x="21.02" y="-1.65" angle="90.00" type="DEFAULT_VEHTYPE" speed="8.52" pos="21.02" lane="VODUGES_beg_0" slope="0.00"/>
        <vehicle id="stopped" x="49.72" y="-1.65" angle="90.00" type="DEFAULT_VEHTYPE" speed="0.89" pos="49.72" lane="VODUGES_beg_0" slope="0.00"/>
    </timestep>
    <timestep time="4.80">
        <vehicle id="oncoming1" x="74.49" y="1.65" angle="270.00" type="DEFAULT_VEHTYPE" speed="10.04" pos="125.51" lane="-VODUGES_beg_0" slope="0.00"/>
        <vehicle id="oncoming2" x="175.11" y="1.65" angle="270.00" type="DEFAULT_VEHTYPE" speed="9.80" pos="24.89" lane="-VODUGES_beg_0" slope="0.00"/>
        <vehicle id="overtaking" x="22.79" y="-1.65" angle="90.00" type="DEFAULT_VEHTYPE" speed="8.85" pos="22.79" lane="VODUGES_beg_0" slope="0.00"/>
        <vehicle id="stopped" x="49.89" y="-1.65" angle="90.00" type="DEFAULT_VEHTYPE" speed="0.85" pos="49.89" lane="VODUGES_beg_0" slope="0.00"/>
    </timestep>
    <timestep time="5.00">
        <vehicle id="oncoming1" x="72.39" y="1.65" angle="270.00" type="DEFAULT_VEHTYPE" speed="10.54" pos="127.61" lane="-VODUGES_beg_0" slope="0.00"/>
        <vehicle id="oncoming2" x="173.08" y="1.65" angle="270.00" type="DEFAULT_VEHTYPE" speed="10.14" pos="26.92" lane="-VODUGES_beg_0" slope="0.00"/>
        <vehicle id="overtaking" x="24.63" y="-1.65" angle="90.00" type="DEFAULT_VEHTYPE" speed="9.24" pos="24.63" lane="VODUGES_beg_0" slope="0.00"/>
        <vehicle id="stopped" x="50.00" y="-1.65" angle="90.00" type="DEFAULT_VEHTYPE" speed="0.54" pos="50.00" lane="VODUGES_beg_0" slope="0.00"/>
    </timestep>
    <timestep time="5.20">
        <vehicle id="oncoming1" x="70.21" y="1.65" angle="270.00" type="DEFAULT_VEHTYPE" speed="10.87" pos="129.79" lane="-VODUGES_beg_0" slope="0.00"/>
        <vehicle id="oncoming2" x="170.98" y="1.65" angle="270.00" type="DEFAULT_VEHTYPE" speed="10.51" pos="29.02" lane="-VODUGES_beg_0" slope="0.00"/>
        <vehicle id="overtaking" x="26.47" y="-1.65" angle="90.00" type="DEFAULT_VEHTYPE" speed="9.17" pos="26.47" lane="VODUGES_beg_0" slope="0.00"/>
        <vehicle id="stopped" x="50.00" y="-1.65" angle="90.00" type="DEFAULT_VEHTYPE" speed="0.01" pos="50.00" lane="VODUGES_beg_0" slope="0.00"/>
    </timestep>
    <timestep time="5.40">
        <vehicle id="oncoming1" x="67.97" y="1.65" angle="270.00" type="DEFAULT_VEHTYPE" speed="11.21" pos="132.03" lane="-VODUGES_beg_0" slope="0.00"/>
        <vehicle id="oncoming2" x="168.83" y="1.65" angle="270.00" type="DEFAULT_VEHTYPE" speed="10.78" pos="31.17" lane="-VODUGES_beg_0" slope="0.00"/>
        <vehicle id="overtaking" x="28.16" y="-1.65" angle="90.00" type="DEFAULT_VEHTYPE" speed="8.47" pos="28.16" lane="VODUGES_beg_0" slope="0.00"/>
        <vehicle id="stopped" x="50.00" y="-1.65" angle="90.00" type="DEFAULT_VEHTYPE" speed="0.00" pos="50.00" lane="VODUGES_beg_0" slope="0.00"/>
    </timestep>
    <timestep time="5.60">
        <vehicle id="oncoming1" x="65.67" y="1.65" angle="270.00" type="DEFAULT_VEHTYPE" speed="11.48" pos="134.33" lane="-VODUGES_beg_0" slope="0.00"/>
        <vehicle id="oncoming2" x="166.58" y="1.65" angle="270.00" type="DEFAULT_VEHTYPE" speed="11.22" pos="33.42" lane="-VODUGES_beg_0" slope="0.00"/>
        <vehicle id="overtaking" x="29.73" y="-1.65" angle="90.00" type="DEFAULT_VEHTYPE" speed="7.83" pos="29.73" lane="VODUGES_beg_0" slope="0.00"/>
        <vehicle id="stopped" x="50.00" y="-1.65" angle="90.00" type="DEFAULT_VEHTYPE" speed="0.00" pos="50.00" lane="VODUGES_beg_0" slope="0.00"/>
    </timestep>
    <timestep time="5.80">
        <vehicle id="oncoming1" x="63.30" y="1.65" angle="270.00" type="DEFAULT_VEHTYPE" speed="11.88" pos="136.70" lane="-VODUGES_beg_0" slope="0.00"/>
        <vehicle id="oncoming2" x="164.26" y="1.65" angle="270.00" type="DEFAULT_VEHTYPE" speed="11.59" pos="35.74" lane="-VODUGES_beg_0" slope="0.00"/>
        <vehicle id="overtaking" x="31.16" y="-1.65" angle="90.00" type="DEFAULT_VEHTYPE" speed="7.17" pos="31.16" lane="VODUGES_beg_0" slope="0.00"/>
        <vehicle id="stopped" x="50.00" y="-1.65" angle="90.00" type="DEFAULT_VEHTYPE" speed="0.00" pos="50.00" lane="VODUGES_beg_0" slope="0.00"/>
    </timestep>
    <timestep time="6.00">
        <vehicle id="oncoming1" x="60.83" y="1.65" angle="270.00" type="DEFAULT_VEHTYPE" speed="12.35" pos="139.17" lane="-VODUGES_beg_0" slope="0.00"/>
        <vehicle id="oncoming2" x="161.89" y="1.65" angle="270.00" type="DEFAULT_VEHTYPE" speed="11.87" pos="38.11" lane="-VODUGES_beg_0" slope="0.00"/>
        <vehicle id="overtaking" x="32.52" y="-1.65" angle="90.00" type="DEFAULT_VEHTYPE" speed="6.80" pos="32.52" lane="VODUGES_beg_0" slope="0.00"/>
        <vehicle id="stopped" x="50.00" y="-1.65" angle="90.00" type="DEFAULT_VEHTYPE" speed="0.00" pos="50.00" lane="VODUGES_beg_0" slope="0.00"/>
    </timestep>
    <timestep time="6.20">
        <vehicle id="oncoming1" x="58.26" y="1.65" angle="270.00" type="DEFAULT_VEHTYPE" speed="12.82" pos="141.74" lane="-VODUGES_beg_0" slope="0.00"/>
        <vehicle id="oncoming2" x="159.45" y="1.65" angle="270.00" type="DEFAULT_VEHTYPE" speed="12.22" pos="40.55" lane="-VODUGES_beg_0" slope="0.00"/>
        <vehicle id="overtaking" x="33.75" y="-1.65" angle="90.00" type="DEFAULT_VEHTYPE" speed="6.12" pos="33.75" lane="VODUGES_beg_0" slope="0.00"/>
        <vehicle id="stopped" x="50.00" y="-1.65" angle="90.00" type="DEFAULT_VEHTYPE" speed="0.00" pos="50.00" lane="VODUGES_beg_0" slope="0.00"/>
    </timestep>
    <timestep time="6.40">
        <vehicle id="oncoming1" x="55.60" y="1.65" angle="270.00" type="DEFAULT_VEHTYPE" speed="13.30" pos="144.40" lane="-VODUGES_beg_0" slope="0.00"/>
        <vehicle id="oncoming2" x="156.90" y="1.65" angle="270.00" type="DEFAULT_VEHTYPE" speed="12.73" pos="43.10" lane="-VODUGES_beg_0" slope="0.00"/>
        <vehicle id="overtaking" x="34.85" y="-1.65" angle="90.00" type="DEFAULT_VEHTYPE" speed="5.48" pos="34.85" lane="VODUGES_beg_0" slope="0.00"/>
        <vehicle id="stopped" x="50.00" y="-1.65" angle="90.00" type="DEFAULT_VEHTYPE" speed="0.00" pos="50.00" lane="VODUGES_beg_0" slope="0.00"/>
    </timestep>
    <timestep time="6.60">
        <vehicle id="oncoming1" x="52.85" y="1.65" angle="270.00" type="DEFAULT_VEHTYPE" speed="13.75" pos="147.15" lane="-VODUGES_beg_0" slope="0.00"/>
        <vehicle id="oncoming2" x="154.28" y="1.65" angle="270.00" type="DEFAULT_VEHTYPE" speed="13.11" pos="45.72" lane="-VODUGES_beg_0" slope="0.00"/>
        <vehicle id="overtaking" x="35.87" y="-1.65" angle="90.00" type="DEFAULT_VEHTYPE" speed="5.13" pos="35.87" lane="VODUGES_beg_0" slope="0.00"/>
        <vehicle id="stopped" x="50.00" y="-1.65" angle="90.00" type="DEFAULT_VEHTYPE" speed="0.00" pos="50.00" lane="VODUGES_beg_0" slope="0.00"/>
    </timestep>
    <timestep time="6.80">
        <vehicle id="oncoming1" x="50.12" y="1.65" angle="270.00" type="DEFAULT_VEHTYPE" speed="13.65" pos="149.88" lane="-VODUGES_beg_0" slope="0.00"/>
        <vehicle id="oncoming2" x="151.56" y="1.65" angle="270.00" type="DEFAULT_VEHTYPE" speed="13.61" pos="48.44" lane="-VODUGES_beg_0" slope="0.00"/>
        <vehicle id="overtaking" x="36.78" y="-1.65" angle="90.00" type="DEFAULT_VEHTYPE" speed="4.53" pos="36.78" lane="VODUGES_beg_0" slope="0.00"/>
        <vehicle id="stopped" x="50.00" y="-1.65" angle="90.00" type="DEFAULT_VEHTYPE" speed="0.00" pos="50.00" lane="VODUGES_beg_0" slope="0.00"/>
    </timestep>
    <timestep time="7.00">
        <vehicle id="oncoming1" x="47.35" y="1.65" angle="270.00" type="DEFAULT_VEHTYPE" speed="13.84" pos="152.65" lane="-VODUGES_beg_0" slope="0.00"/>
        <vehicle id="oncoming2" x="148.83" y="1.65" angle="270.00" type="DEFAULT_VEHTYPE" speed="13.63" pos="51.17" lane="-VODUGES_beg_0" slope="0.00"/>
        <vehicle id="overtaking" x="37.61" y="-1.65" angle="90.00" type="DEFAULT_VEHTYPE" speed="4.17" pos="37.61" lane="VODUGES_beg_0" slope="0.00"/>
        <vehicle id="stopped" x="50.00" y="-1.65" angle="90.00" type="DEFAULT_VEHTYPE" speed="0.00" pos="50.00" lane="VODUGES_beg_0" slope="0.00"/>
    </timestep>
    <timestep time="7.20">
        <vehicle id="oncoming1" x="44.59" y="1.65" angle="270.00" type="DEFAULT_VEHTYPE" speed="13.81" pos="155.41" lane="-VODUGES_beg_0" slope="0.00"/>
        <vehicle id="oncoming2" x="146.07" y="1.65" angle="270.00" type="DEFAULT_VEHTYPE" speed="13.80" pos="53.93" lane="-VODUGES_beg_0" slope="0.00"/>
        <vehicle id="overtaking" x="38.31" y="-1.65" angle="90.00" type="DEFAULT_VEHTYPE" speed="3.50" pos="38.31" lane="VODUGES_beg_0" slope="0.00"/>
        <vehicle id="stopped" x="50.00" y="-1.65" angle="90.00" type="DEFAULT_VEHTYPE" speed="0.00" pos="50.00" lane="VODUGES_beg_0" slope="0.00"/>
    </timestep>
    <timestep time="7.40">
        <vehicle id="oncoming1" x="41.82" y="1.65" angle="270.00" type="DEFAULT_VEHTYPE" speed="13.87" pos="158.18" lane="-VODUGES_beg_0" slope="0.00"/>
        <vehicle id="oncoming2" x="143.32" y="1.65" angle="270.00" type="DEFAULT_VEHTYPE" speed="13.74" pos="56.68" lane="-VODUGES_beg_0" slope="0.00"/>
        <vehicle id="overtaking" x="38.93" y="-1.65" angle="90.00" type="DEFAULT_VEHTYPE" speed="3.08" pos="38.93" lane="VODUGES_beg_0" slope="0.00"/>
        <vehicle id="stopped" x="50.00" y="-1.65" angle="90.00" type="DEFAULT_VEHTYPE" speed="0.00" pos="50.00" lane="VODUGES_beg_0" slope="0.00"/>
    </timestep>
    <timestep time="7.60">
        <vehicle id="oncoming1" x="39.05" y="1.65" angle="270.00" type="DEFAULT_VEHTYPE" speed="13.84" pos="160.95" lane="-VODUGES_beg_0" slope="0.00"/>
        <vehicle id="oncoming2" x="140.55" y="1.65" angle="270.00" type="DEFAULT_VEHTYPE" speed="13.84" pos="59.45" lane="-VODUGES_beg_0" slope="0.00"/>
        <vehicle id="overtaking" x="39.47" y="-1.65" angle="90.00" type="DEFAULT_VEHTYPE" speed="2.73" pos="39.47" lane="VODUGES_beg_0" slope="0.00"/>
        <vehicle id="stopped" x="50.00" y="-1.65" angle="90.00" type="DEFAULT_VEHTYPE" speed="0.00" pos="50.00" lane="VODUGES_beg_0" slope="0.00"/>
    </timestep>
    <timestep time="7.80">
        <vehicle id="oncoming1" x="36.27" y="1.65" angle="270.00" type="DEFAULT_VEHTYPE" speed="13.88" pos="163.73" lane="-VODUGES_beg_0" slope="0.00"/>
        <vehicle id="oncoming2" x="137.78" y="1.65" angle="270.00" type="DEFAULT_VEHTYPE" speed="13.87" pos="62.22" lane="-VODUGES_beg_0" slope="0.00"/>
        <vehicle id="overtaking" x="39.95" y="-1.65" angle="90.00" type="DEFAULT_VEHTYPE" speed="2.38" pos="39.95" lane="VODUGES_beg_0" slope="0.00"/>
        <vehicle id="stopped" x="50.00" y="-1.65" angle="90.00" type="DEFAULT_VEHTYPE" speed="0.00" pos="50.00" lane="VODUGES_beg_0" slope="0.00"/>
    </timestep>
    <timestep time="8.00">
        <vehicle id="oncoming1" x="33.53" y="1.65" angle="270.00" type="DEFAULT_VEHTYPE" speed="13.70" pos="166.47" lane="-VODUGES_beg_0" slope="0.00"/>
        <vehicle id="oncoming2" x="135.02" y="1.65" angle="270.00" type="DEFAULT_VEHTYPE" speed="13.80" pos="64.98" lane="-VODUGES_beg_0" slope="0.00"/>
        <vehicle id="overtaking" x="40.37" y="-1.65" angle="90.00" type="DEFAULT_VEHTYPE" speed="2.10" pos="40.37" lane="VODUGES_beg_0" slope="0.00"/>
        <vehicle id="stopped" x="50.00" y="-1.65" angle="90.00" type="DEFAULT_VEHTYPE" speed="0.00" pos="50.00" lane="VODUGES_beg_0" slope="0.00"/>
    </timestep>
    <timestep time="8.20">
        <vehicle id="oncoming1" x="30.79" y="1.65" angle="270.00" type="DEFAULT_VEHTYPE" speed="13.70" pos="169.21" lane="-VODUGES_beg_0" slope="0.00"/>
        <vehicle id="oncoming2" x="132.25" y="1.65" angle="270.00" type="DEFAULT_VEHTYPE" speed="13.83" pos="67.75" lane="-VODUGES_beg_0" slope="0.00"/>
        <vehicle id="overtaking" x="40.61" y="-1.65" angle="90.00" type="DEFAULT_VEHTYPE" speed="1.20" pos="40.61" lane="VODUGES_beg_0" slope="0.00"/>
        <vehicle id="stopped" x="50.00" y="-1.65" angle="90.00" type="DEFAULT_VEHTYPE" speed="0.00" pos="50.00" lane="VODUGES_beg_0" slope="0.00"/>
    </timestep>
    <timestep time="8.40">
        <vehicle id="oncoming1" x="28.05" y="1.65" angle="270.00" type="DEFAULT_VEHTYPE" speed="13.70" pos="171.95" lane="-VODUGES_beg_0" slope="0.00"/>
        <vehicle id="oncoming2" x="129.49" y="1.65" angle="270.00" type="DEFAULT_VEHTYPE" speed="13.78" pos="70.51" lane="-VODUGES_beg_0" slope="0.00"/>
        <vehicle id="overtaking" x="40.67" y="1.65" angle="90.00" type="DEFAULT_VEHTYPE" speed="0.30" pos="159.33" lane="-VODUGES_beg_0" slope="0.00"/>
        <vehicle id="stopped" x="50.00" y="-1.65" angle="90.00" type="DEFAULT_VEHTYPE" speed="0.00" pos="50.00" lane="VODUGES_beg_0" slope="0.00"/>
    </timestep>
    <timestep time="8.60">
        <vehicle id="oncoming1" x="25.31" y="1.65" angle="270.00" type="DEFAULT_VEHTYPE" speed="13.73" pos="174.69" lane="-VODUGES_beg_0" slope="0.00"/>
        <vehicle id="oncoming2" x="126.74" y="1.65" angle="270.00" type="DEFAULT_VEHTYPE" speed="13.76" pos="73.26" lane="-VODUGES_beg_0" slope="0.00"/>
        <vehicle id="overtaking" x="40.83" y="1.65" angle="90.00" type="DEFAULT_VEHTYPE" speed="0.79" pos="159.17" lane="-VODUGES_beg_0" slope="0.00"/>
        <vehicle id="stopped" x="50.00" y="-1.65" angle="90.00" type="DEFAULT_VEHTYPE" speed="0.00" pos="50.00" lane="VODUGES_beg_0" slope="0.00"/>
    </timestep>
    <timestep time="8.80">
        <vehicle id="oncoming1" x="22.57" y="1.65" angle="270.00" type="DEFAULT_VEHTYPE" speed="13.68" pos="177.43" lane="-VODUGES_beg_0" slope="0.00"/>