<?xml version="1.0" encoding="UTF-8"?>

<!-- generated on Mon Nov 12 14:33:53 2018 by Eclipse SUMO Version v1_0_1+0617-70ae16b
This data file and the accompanying materials
are made available under the terms of the Eclipse Public License v2.0
which accompanies this distribution, and is available at
http://www.eclipse.org/legal/epl-v20.html
SPDX-License-Identifier: EPL-2.0
<configuration xmlns:xsi="http://www.w3.org/2001/XMLSchema-instance" xsi:noNamespaceSchemaLocation="http://sumo.dlr.de/xsd/sumoConfiguration.xsd">

    <input>
        <net-file value="net.net.xml"/>
        <route-files value="input_routes.rou.xml"/>
    </input>

    <output>
        <write-license value="true"/>
        <fcd-output value="fcd.xml"/>
        <tripinfo-output value="tripinfos.xml"/>
    </output>

    <time>
        <step-length value="0.2"/>
    </time>

    <processing>
        <default.speeddev value="0"/>
    </processing>

    <report>
        <xml-validation value="never"/>
        <no-step-log value="true"/>
    </report>

    <gui_only>
        <tracker-interval value="0.2"/>
    </gui_only>

</configuration>
-->

<fcd-export xmlns:xsi="http://www.w3.org/2001/XMLSchema-instance" xsi:noNamespaceSchemaLocation="http://sumo.dlr.de/xsd/fcd_file.xsd">
    <timestep time="0.00">
        <vehicle id="overtaking" x="0.00" y="-1.65" angle="90.00" type="DEFAULT_VEHTYPE" speed="0.00" pos="0.00" lane="VODUGES_beg_0" slope="0.00"/>
        <vehicle id="stopped" x="40.00" y="-1.65" angle="90.00" type="DEFAULT_VEHTYPE" speed="0.00" pos="40.00" lane="VODUGES_beg_0" slope="0.00"/>
    </timestep>
    <timestep time="0.20">
        <vehicle id="overtaking" x="0.10" y="-1.65" angle="90.00" type="DEFAULT_VEHTYPE" speed="0.50" pos="0.10" lane="VODUGES_beg_0" slope="0.00"/>
        <vehicle id="stopped" x="40.10" y="-1.65" angle="90.00" type="DEFAULT_VEHTYPE" speed="0.52" pos="40.10" lane="VODUGES_beg_0" slope="0.00"/>
    </timestep>
    <timestep time="0.40">
        <vehicle id="overtaking" x="0.29" y="-1.65" angle="90.00" type="DEFAULT_VEHTYPE" speed="0.96" pos="0.29" lane="VODUGES_beg_0" slope="0.00"/>
        <vehicle id="stopped" x="40.30" y="-1.65" angle="90.00" type="DEFAULT_VEHTYPE" speed="0.97" pos="40.30" lane="VODUGES_beg_0" slope="0.00"/>
    </timestep>
    <timestep time="0.60">
        <vehicle id="overtaking" x="0.56" y="-1.65" angle="90.00" type="DEFAULT_VEHTYPE" speed="1.34" pos="0.56" lane="VODUGES_beg_0" slope="0.00"/>
        <vehicle id="stopped" x="40.57" y="-1.65" angle="90.00" type="DEFAULT_VEHTYPE" speed="1.38" pos="40.57" lane="VODUGES_beg_0" slope="0.00"/>
    </timestep>
    <timestep time="0.80">
        <vehicle id="overtaking" x="0.90" y="-1.65" angle="90.00" type="DEFAULT_VEHTYPE" speed="1.71" pos="0.90" lane="VODUGES_beg_0" slope="0.00"/>
        <vehicle id="stopped" x="40.94" y="-1.65" angle="90.00" type="DEFAULT_VEHTYPE" speed="1.85" pos="40.94" lane="VODUGES_beg_0" slope="0.00"/>
    </timestep>
    <timestep time="1.00">
        <vehicle id="overtaking" x="1.32" y="-1.65" angle="90.00" type="DEFAULT_VEHTYPE" speed="2.08" pos="1.32" lane="VODUGES_beg_0" slope="0.00"/>
        <vehicle id="stopped" x="41.41" y="-1.65" angle="90.00" type="DEFAULT_VEHTYPE" speed="2.35" pos="41.41" lane="VODUGES_beg_0" slope="0.00"/>
    </timestep>
    <timestep time="1.20">
        <vehicle id="overtaking" x="1.80" y="-1.65" angle="90.00" type="DEFAULT_VEHTYPE" speed="2.40" pos="1.80" lane="VODUGES_beg_0" slope="0.00"/>
        <vehicle id="stopped" x="41.96" y="-1.65" angle="90.00" type="DEFAULT_VEHTYPE" speed="2.75" pos="41.96" lane="VODUGES_beg_0" slope="0.00"/>
    </timestep>
    <timestep time="1.40">
        <vehicle id="overtaking" x="2.34" y="-1.65" angle="90.00" type="DEFAULT_VEHTYPE" speed="2.71" pos="2.34" lane="VODUGES_beg_0" slope="0.00"/>
        <vehicle id="stopped" x="42.60" y="-1.65" angle="90.00" type="DEFAULT_VEHTYPE" speed="3.20" pos="42.60" lane="VODUGES_beg_0" slope="0.00"/>
    </timestep>
    <timestep time="1.60">
        <vehicle id="overtaking" x="2.95" y="-1.65" angle="90.00" type="DEFAULT_VEHTYPE" speed="3.05" pos="2.95" lane="VODUGES_beg_0" slope="0.00"/>
        <vehicle id="stopped" x="43.32" y="-1.65" angle="90.00" type="DEFAULT_VEHTYPE" speed="3.60" pos="43.32" lane="VODUGES_beg_0" slope="0.00"/>
    </timestep>
    <timestep time="1.80">
        <vehicle id="overtaking" x="3.64" y="-1.65" angle="90.00" type="DEFAULT_VEHTYPE" speed="3.43" pos="3.64" lane="VODUGES_beg_0" slope="0.00"/>
        <vehicle id="stopped" x="44.13" y="-1.65" angle="90.00" type="DEFAULT_VEHTYPE" speed="4.03" pos="44.13" lane="VODUGES_beg_0" slope="0.00"/>
    </timestep>
    <timestep time="2.00">
        <vehicle id="overtaking" x="4.40" y="-1.65" angle="90.00" type="DEFAULT_VEHTYPE" speed="3.82" pos="4.40" lane="VODUGES_beg_0" slope="0.00"/>
        <vehicle id="stopped" x="44.94" y="-1.65" angle="90.00" type="DEFAULT_VEHTYPE" speed="4.05" pos="44.94" lane="VODUGES_beg_0" slope="0.00"/>
    </timestep>
    <timestep time="2.20">
        <vehicle id="overtaking" x="5.23" y="-1.65" angle="90.00" type="DEFAULT_VEHTYPE" speed="4.15" pos="5.23" lane="VODUGES_beg_0" slope="0.00"/>
        <vehicle id="stopped" x="45.70" y="-1.65" angle="90.00" type="DEFAULT_VEHTYPE" speed="3.79" pos="45.70" lane="VODUGES_beg_0" slope="0.00"/>
    </timestep>
    <timestep time="2.40">
        <vehicle id="overtaking" x="6.11" y="-1.65" angle="90.00" type="DEFAULT_VEHTYPE" speed="4.43" pos="6.11" lane="VODUGES_beg_0" slope="0.00"/>
        <vehicle id="stopped" x="46.36" y="-1.65" angle="90.00" type="DEFAULT_VEHTYPE" speed="3.31" pos="46.36" lane="VODUGES_beg_0" slope="0.00"/>
    </timestep>
    <timestep time="2.60">
        <vehicle id="overtaking" x="7.10" y="-1.65" angle="90.00" type="DEFAULT_VEHTYPE" speed="4.91" pos="7.10" lane="VODUGES_beg_0" slope="0.00"/>
        <vehicle id="stopped" x="46.94" y="-1.65" angle="90.00" type="DEFAULT_VEHTYPE" speed="2.90" pos="46.94" lane="VODUGES_beg_0" slope="0.00"/>
    </timestep>
    <timestep time="2.80">
        <vehicle id="overtaking" x="8.17" y="-1.65" angle="90.00" type="DEFAULT_VEHTYPE" speed="5.39" pos="8.17" lane="VODUGES_beg_0" slope="0.00"/>
        <vehicle id="stopped" x="47.44" y="-1.65" angle="90.00" type="DEFAULT_VEHTYPE" speed="2.52" pos="47.44" lane="VODUGES_beg_0" slope="0.00"/>
    </timestep>
    <timestep time="3.00">
        <vehicle id="overtaking" x="9.33" y="-1.65" angle="90.00" type="DEFAULT_VEHTYPE" speed="5.76" pos="9.33" lane="VODUGES_beg_0" slope="0.00"/>
        <vehicle id="stopped" x="47.87" y="-1.65" angle="90.00" type="DEFAULT_VEHTYPE" speed="2.14" pos="47.87" lane="VODUGES_beg_0" slope="0.00"/>
    </timestep>
    <timestep time="3.20">
        <vehicle id="overtaking" x="10.54" y="-1.65" angle="90.00" type="DEFAULT_VEHTYPE" speed="6.07" pos="10.54" lane="VODUGES_beg_0" slope="0.00"/>
        <vehicle id="stopped" x="48.25" y="-1.65" angle="90.00" type="DEFAULT_VEHTYPE" speed="1.89" pos="48.25" lane="VODUGES_beg_0" slope="0.00"/>
    </timestep>
    <timestep time="3.40">
        <vehicle id="overtaking" x="11.81" y="-1.65" angle="90.00" type="DEFAULT_VEHTYPE" speed="6.37" pos="11.81" lane="VODUGES_beg_0" slope="0.00"/>
        <vehicle id="stopped" x="48.56" y="-1.65" angle="90.00" type="DEFAULT_VEHTYPE" speed="1.55" pos="48.56" lane="VODUGES_beg_0" slope="0.00"/>
    </timestep>
    <timestep time="3.60">
        <vehicle id="overtaking" x="13.17" y="-1.65" angle="90.00" type="DEFAULT_VEHTYPE" speed="6.76" pos="13.17" lane="VODUGES_beg_0" slope="0.00"/>
        <vehicle id="stopped" x="48.80" y="-1.65" angle="90.00" type="DEFAULT_VEHTYPE" speed="1.22" pos="48.80" lane="VODUGES_beg_0" slope="0.00"/>
    </timestep>
    <timestep time="3.80">
        <vehicle id="overtaking" x="14.61" y="-1.65" angle="90.00" type="DEFAULT_VEHTYPE" speed="7.23" pos="14.61" lane="VODUGES_beg_0" slope="0.00"/>
        <vehicle id="stopped" x="49.03" y="-1.65" angle="90.00" type="DEFAULT_VEHTYPE" speed="1.14" pos="49.03" lane="VODUGES_beg_0" slope="0.00"/>
    </timestep>
    <timestep time="4.00">
        <vehicle id="overtaking" x="16.12" y="-1.65" angle="90.00" type="DEFAULT_VEHTYPE" speed="7.53" pos="16.12" lane="VODUGES_beg_0" slope="0.00"/>
        <vehicle id="stopped" x="49.21" y="-1.65" angle="90.00" type="DEFAULT_VEHTYPE" speed="0.89" pos="49.21" lane="VODUGES_beg_0" slope="0.00"/>
    </timestep>
    <timestep time="4.20">
        <vehicle id="overtaking" x="17.68" y="-1.65" angle="90.00" type="DEFAULT_VEHTYPE" speed="7.80" pos="17.68" lane="VODUGES_beg_0" slope="0.00"/>
        <vehicle id="stopped" x="49.37" y="-1.65" angle="90.00" type="DEFAULT_VEHTYPE" speed="0.84" pos="49.37" lane="VODUGES_beg_0" slope="0.00"/>
    </timestep>
    <timestep time="4.40">
        <vehicle id="overtaking" x="19.31" y="-1.65" angle="90.00" type="DEFAULT_VEHTYPE" speed="8.16" pos="19.31" lane="VODUGES_beg_0" slope="0.00"/>
        <vehicle id="stopped" x="49.54" y="-1.65" angle="90.00" type="DEFAULT_VEHTYPE" speed="0.84" pos="49.54" lane="VODUGES_beg_0" slope="0.00"/>
    </timestep>
    <timestep time="4.60">
        <vehicle id="overtaking" x="21.02" y="-1.65" angle="90.00" type="DEFAULT_VEHTYPE" speed="8.52" pos="21.02" lane="VODUGES_beg_0" slope="0.00"/>
        <vehicle id="stopped" x="49.72" y="-1.65" angle="90.00" type="DEFAULT_VEHTYPE" speed="0.89" pos="49.72" lane="VODUGES_beg_0" slope="0.00"/>
    </timestep>
    <timestep time="4.80">
        <vehicle id="overtaking" x="22.79" y="-1.65" angle="90.00" type="DEFAULT_VEHTYPE" speed="8.85" pos="22.79" lane="VODUGES_beg_0" slope="0.00"/>
        <vehicle id="stopped" x="49.89" y="-1.65" angle="90.00" type="DEFAULT_VEHTYPE" speed="0.85" pos="49.89" lane="VODUGES_beg_0" slope="0.00"/>
    </timestep>
    <timestep time="5.00">
        <vehicle id="overtaking" x="24.63" y="-1.65" angle="90.00" type="DEFAULT_VEHTYPE" speed="9.24" pos="24.63" lane="VODUGES_beg_0" slope="0.00"/>
        <vehicle id="stopped" x="50.00" y="-1.65" angle="90.00" type="DEFAULT_VEHTYPE" speed="0.54" pos="50.00" lane="VODUGES_beg_0" slope="0.00"/>
    </timestep>
    <timestep time="5.20">
        <vehicle id="overtaking" x="26.47" y="1.65" angle="90.00" type="DEFAULT_VEHTYPE" speed="9.17" pos="173.53" lane="-VODUGES_beg_0" slope="0.00"/>
        <vehicle id="stopped" x="50.00" y="-1.65" angle="90.00" type="DEFAULT_VEHTYPE" speed="0.01" pos="50.00" lane="VODUGES_beg_0" slope="0.00"/>
    </timestep>
    <timestep time="5.40">
        <vehicle id="overtaking" x="28.36" y="1.65" angle="90.00" type="DEFAULT_VEHTYPE" speed="9.46" pos="171.64" lane="-VODUGES_beg_0" slope="0.00"/>
        <vehicle id="stopped" x="50.00" y="-1.65" angle="90.00" type="DEFAULT_VEHTYPE" speed="0.00" pos="50.00" lane="VODUGES_beg_0" slope="0.00"/>
    </timestep>
    <timestep time="5.60">
        <vehicle id="overtaking" x="30.32" y="1.65" angle="90.00" type="DEFAULT_VEHTYPE" speed="9.79" pos="169.68" lane="-VODUGES_beg_0" slope="0.00"/>
        <vehicle id="stopped" x="50.00" y="-1.65" angle="90.00" type="DEFAULT_VEHTYPE" speed="0.00" pos="50.00" lane="VODUGES_beg_0" slope="0.00"/>
    </timestep>
    <timestep time="5.80">
        <vehicle id="overtaking" x="32.38" y="1.65" angle="90.00" type="DEFAULT_VEHTYPE" speed="10.30" pos="167.62" lane="-VODUGES_beg_0" slope="0.00"/>
        <vehicle id="stopped" x="50.00" y="-1.65" angle="90.00" type="DEFAULT_VEHTYPE" speed="0.00" pos="50.00" lane="VODUGES_beg_0" slope="0.00"/>
    </timestep>
    <timestep time="6.00">
        <vehicle id="overtaking" x="34.52" y="1.65" angle="90.00" type="DEFAULT_VEHTYPE" speed="10.69" pos="165.48" lane="-VODUGES_beg_0" slope="0.00"/>
        <vehicle id="stopped" x="50.00" y="-1.65" angle="90.00" type="DEFAULT_VEHTYPE" speed="0.00" pos="50.00" lane="VODUGES_beg_0" slope="0.00"/>
    </timestep>
    <timestep time="6.20">
        <vehicle id="overtaking" x="36.73" y="1.65" angle="90.00" type="DEFAULT_VEHTYPE" speed="11.06" pos="163.27" lane="-VODUGES_beg_0" slope="0.00"/>
        <vehicle id="stopped" x="50.00" y="-1.65" angle="90.00" type="DEFAULT_VEHTYPE" speed="0.00" pos="50.00" lane="VODUGES_beg_0" slope="0.00"/>
    </timestep>
    <timestep time="6.40">
        <vehicle id="overtaking" x="39.04" y="1.65" angle="90.00" type="DEFAULT_VEHTYPE" speed="11.57" pos="160.96" lane="-VODUGES_beg_0" slope="0.00"/>
        <vehicle id="stopped" x="50.00" y="-1.65" angle="90.00" type="DEFAULT_VEHTYPE" speed="0.00" pos="50.00" lane="VODUGES_beg_0" slope="0.00"/>
    </timestep>
    <timestep time="6.60">
        <vehicle id="overtaking" x="41.42" y="1.65" angle="90.00" type="DEFAULT_VEHTYPE" speed="11.90" pos="158.58" lane="-VODUGES_beg_0" slope="0.00"/>
        <vehicle id="stopped" x="50.00" y="-1.65" angle="90.00" type="DEFAULT_VEHTYPE" speed="0.00" pos="50.00" lane="VODUGES_beg_0" slope="0.00"/>
    </timestep>
    <timestep time="6.80">
        <vehicle id="overtaking" x="43.89" y="1.65" angle="90.00" type="DEFAULT_VEHTYPE" speed="12.35" pos="156.11" lane="-VODUGES_beg_0" slope="0.00"/>
        <vehicle id="stopped" x="50.00" y="-1.65" angle="90.00" type="DEFAULT_VEHTYPE" speed="0.00" pos="50.00" lane="VODUGES_beg_0" slope="0.00"/>
    </timestep>
    <timestep time="7.00">
        <vehicle id="overtaking" x="46.44" y="1.65" angle="90.00" type="DEFAULT_VEHTYPE" speed="12.73" pos="153.56" lane="-VODUGES_beg_0" slope="0.00"/>
        <vehicle id="stopped" x="50.00" y="-1.65" angle="90.00" type="DEFAULT_VEHTYPE" speed="0.00" pos="50.00" lane="VODUGES_beg_0" slope="0.00"/>
    </timestep>
    <timestep time="7.20">
        <vehicle id="overtaking" x="49.05" y="1.65" angle="90.00" type="DEFAULT_VEHTYPE" speed="13.06" pos="150.95" lane="-VODUGES_beg_0" slope="0.00"/>
        <vehicle id="stopped" x="50.00" y="-1.65" angle="90.00" type="DEFAULT_VEHTYPE" speed="0.00" pos="50.00" lane="VODUGES_beg_0" slope="0.00"/>
    </timestep>
    <timestep time="7.40">
        <vehicle id="overtaking" x="51.76" y="1.65" angle="90.00" type="DEFAULT_VEHTYPE" speed="13.57" pos="148.24" lane="-VODUGES_beg_0" slope="0.00"/>
        <vehicle id="stopped" x="50.00" y="-1.65" angle="90.00" type="DEFAULT_VEHTYPE" speed="0.00" pos="50.00" lane="VODUGES_beg_0" slope="0.00"/>
    </timestep>
    <timestep time="7.60">
        <vehicle id="overtaking" x="54.52" y="1.65" angle="90.00" type="DEFAULT_VEHTYPE" speed="13.80" pos="145.48" lane="-VODUGES_beg_0" slope="0.00"/>
        <vehicle id="stopped" x="50.00" y="-1.65" angle="90.00" type="DEFAULT_VEHTYPE" speed="0.00" pos="50.00" lane="VODUGES_beg_0" slope="0.00"/>
    </timestep>
    <timestep time="7.80">
        <vehicle id="overtaking" x="57.29" y="1.65" angle="90.00" type="DEFAULT_VEHTYPE" speed="13.83" pos="142.71" lane="-VODUGES_beg_0" slope="0.00"/>
        <vehicle id="stopped" x="50.00" y="-1.65" angle="90.00" type="DEFAULT_VEHTYPE" speed="0.00" pos="50.00" lane="VODUGES_beg_0" slope="0.00"/>
    </timestep>
    <timestep time="8.00">
        <vehicle id="overtaking" x="60.06" y="-1.65" angle="90.00" type="DEFAULT_VEHTYPE" speed="13.83" pos="60.06" lane="VODUGES_beg_0" slope="0.00"/>
        <vehicle id="stopped" x="50.00" y="-1.65" angle="90.00" type="DEFAULT_VEHTYPE" speed="0.00" pos="50.00" lane="VODUGES_beg_0" slope="0.00"/>
    </timestep>
    <timestep time="8.20">
        <vehicle id="overtaking" x="62.80" y="-1.65" angle="90.00" type="DEFAULT_VEHTYPE" speed="13.70" pos="62.80" lane="VODUGES_beg_0" slope="0.00"/>
        <vehicle id="stopped" x="50.00" y="-1.65" angle="90.00" type="DEFAULT_VEHTYPE" speed="0.00" pos="50.00" lane="VODUGES_beg_0" slope="0.00"/>
    </timestep>
    <timestep time="8.40">
        <vehicle id="overtaking" x="65.53" y="-1.65" angle="90.00" type="DEFAULT_VEHTYPE" speed="13.68" pos="65.53" lane="VODUGES_beg_0" slope="0.00"/>
        <vehicle id="stopped" x="50.00" y="-1.65" angle="90.00" type="DEFAULT_VEHTYPE" speed="0.00" pos="50.00" lane="VODUGES_beg_0" slope="0.00"/>
    </timestep>
    <timestep time="8.60">
        <vehicle id="overtaking" x="68.29" y="-1.65" angle="90.00" type="DEFAULT_VEHTYPE" speed="13.78" pos="68.29" lane="VODUGES_beg_0" slope="0.00"/>
        <vehicle id="stopped" x="50.00" y="-1.65" angle="90.00" type="DEFAULT_VEHTYPE" speed="0.00" pos="50.00" lane="VODUGES_beg_0" slope="0.00"/>
    </timestep>
    <timestep time="8.80">
        <vehicle id="overtaking" x="71.02" y="-1.65" angle="90.00" type="DEFAULT_VEHTYPE" speed="13.66" pos="71.02" lane="VODUGES_beg_0" slope="0.00"/>
        <vehicle id="stopped" x="50.00" y="-1.65" angle="90.00" type="DEFAULT_VEHTYPE" speed="0.00" pos="50.00" lane="VODUGES_beg_0" slope="0.00"/>
    </timestep>
    <timestep time="9.00">
        <vehicle id="overtaking" x="73.75" y="-1.65" angle="90.00" type="DEFAULT_VEHTYPE" speed="13.68" pos="73.75" lane="VODUGES_beg_0" slope="0.00"/>
        <vehicle id="stopped" x="50.00" y="-1.65" angle="90.00" type="DEFAULT_VEHTYPE" speed="0.00" pos="50.00" lane="VODUGES_beg_0" slope="0.00"/>
    </timestep>
    <timestep time="9.20">
        <vehicle id="overtaking" x="76.52" y="-1.65" angle="90.00" type="DEFAULT_VEHTYPE" speed="13.82" pos="76.52" lane="VODUGES_beg_0" slope="0.00"/>
        <vehicle id="stopped" x="50.00" y="-1.65" angle="90.00" type="DEFAULT_VEHTYPE" speed="0.00" pos="50.00" lane="VODUGES_beg_0" slope="0.00"/>
    </timestep>
    <timestep time="9.40">
        <vehicle id="overtaking" x="79.29" y="-1.65" angle="90.00" type="DEFAULT_VEHTYPE" speed="13.86" pos="79.29" lane="VODUGES_beg_0" slope="0.00"/>
        <vehicle id="stopped" x="50.00" y="-1.65" angle="90.00" type="DEFAULT_VEHTYPE" speed="0.00" pos="50.00" lane="VODUGES_beg_0" slope="0.00"/>
    </timestep>
    <timestep time="9.60">
        <vehicle id="overtaking" x="82.04" y="-1.65" angle="90.00" type="DEFAULT_VEHTYPE" speed="13.75" pos="82.04" lane="VODUGES_beg_0" slope="0.00"/>
        <vehicle id="stopped" x="50.00" y="-1.65" angle="90.00" type="DEFAULT_VEHTYPE" speed="0.00" pos="50.00" lane="VODUGES_beg_0" slope="0.00"/>
    </timestep>
    <timestep time="9.80">
        <vehicle id="overtaking" x="84.79" y="-1.65" angle="90.00" type="DEFAULT_VEHTYPE" speed="13.78" pos="84.79" lane="VODUGES_beg_0" slope="0.00"/>
        <vehicle id="stopped" x="50.00" y="-1.65" angle="90.00" type="DEFAULT_VEHTYPE" speed="0.00" pos="50.00" lane="VODUGES_beg_0" slope="0.00"/>
    </timestep>
    <timestep time="10.00">
        <vehicle id="overtaking" x="87.55" y="-1.65" angle="90.00" type="DEFAULT_VEHTYPE" speed="13.79" pos="87.55" lane="VODUGES_beg_0" slope="0.00"/>
        <vehicle id="stopped" x="50.00" y="-1.65" angle="90.00" type="DEFAULT_VEHTYPE" speed="0.00" pos="50.00" lane="VODUGES_beg_0" slope="0.00"/>
    </timestep>
    <timestep time="10.20">
        <vehicle id="overtaking" x="90.28" y="-1.65" angle="90.00" type="DEFAULT_VEHTYPE" speed="13.65" pos="90.28" lane="VODUGES_beg_0" slope="0.00"/>
        <vehicle id="stopped" x="50.00" y="-1.65" angle="90.00" type="DEFAULT_VEHTYPE" speed="0.00" pos="50.00" lane="VODUGES_beg_0" slope="0.00"/>
    </timestep>
    <timestep time="10.40">
        <vehicle id="overtaking" x="93.04" y="-1.65" angle="90.00" type="DEFAULT_VEHTYPE" speed="13.80" pos="93.04" lane="VODUGES_beg_0" slope="0.00"/>
        <vehicle id="stopped" x="50.00" y="-1.65" angle="90.00" type="DEFAULT_VEHTYPE" speed="0.00" pos="50.00" lane="VODUGES_beg_0" slope="0.00"/>
    </timestep>
    <timestep time="10.60">
        <vehicle id="overtaking" x="95.78" y="-1.65" angle="90.00" type="DEFAULT_VEHTYPE" speed="13.67" pos="95.78" lane="VODUGES_beg_0" slope="0.00"/>
        <vehicle id="stopped" x="50.00" y="-1.65" angle="90.00" type="DEFAULT_VEHTYPE" speed="0.00" pos="50.00" lane="VODUGES_beg_0" slope="0.00"/>
    </timestep>
    <timestep time="10.80">
        <vehicle id="overtaking" x="98.54" y="-1.65" angle="90.00" type="DEFAULT_VEHTYPE" speed="13.83" pos="98.54" lane="VODUGES_beg_0" slope="0.00"/>
        <vehicle id="stopped" x="50.00" y="-1.65" angle="90.00" type="DEFAULT_VEHTYPE" speed="0.00" pos="50.00" lane="VODUGES_beg_0" slope="0.00"/>
    </timestep>
    <timestep time="11.00">
        <vehicle id="overtaking" x="101.28" y="-1.65" angle="90.00" type="DEFAULT_VEHTYPE" speed="13.71" pos="101.28" lane="VODUGES_beg_0" slope="0.00"/>
        <vehicle id="stopped" x="50.00" y="-1.65" angle="90.00" type="DEFAULT_VEHTYPE" speed="0.00" pos="50.00" lane="VODUGES_beg_0" slope="0.00"/>
    </timestep>
    <timestep time="11.20">
        <vehicle id="overtaking" x="104.02" y="-1.65" angle="90.00" type="DEFAULT_VEHTYPE" speed="13.70" pos="104.02" lane="VODUGES_beg_0" slope="0.00"/>
        <vehicle id="stopped" x="50.00" y="-1.65" angle="90.00" type="DEFAULT_VEHTYPE" speed="0.00" pos="50.00" lane="VODUGES_beg_0" slope="0.00"/>
    </timestep>
    <timestep time="11.40">
        <vehicle id="overtaking" x="106.80" y="-1.65" angle="90.00" type="DEFAULT_VEHTYPE" speed="13.86" pos="106.80" lane="VODUGES_beg_0" slope="0.00"/>
        <vehicle id="stopped" x="50.00" y="-1.65" angle="90.00" type="DEFAULT_VEHTYPE" speed="0.00" pos="50.00" lane="VODUGES_beg_0" slope="0.00"/>
    </timestep>
    <timestep time="11.60">
        <vehicle id="overtaking" x="109.55" y="-1.65" angle="90.00" type="DEFAULT_VEHTYPE" speed="13.77" pos="109.55" lane="VODUGES_beg_0" slope="0.00"/>
        <vehicle id="stopped" x="50.00" y="-1.65" angle="90.00" type="DEFAULT_VEHTYPE" speed="0.00" pos="50.00" lane="VODUGES_beg_0" slope="0.00"/>
    </timestep>
    <timestep time="11.80">
        <vehicle id="overtaking" x="112.32" y="-1.65" angle="90.00" type="DEFAULT_VEHTYPE" speed="13.86" pos="112.32" lane="VODUGES_beg_0" slope="0.00"/>
        <vehicle id="stopped" x="50.00" y="-1.65" angle="90.00" type="DEFAULT_VEHTYPE" speed="0.00" pos="50.00" lane="VODUGES_beg_0" slope="0.00"/>
    </timestep>
    <timestep time="12.00">
        <vehicle id="overtaking" x="115.07" y="-1.65" angle="90.00" type="DEFAULT_VEHTYPE" speed="13.74" pos="115.07" lane="VODUGES_beg_0" slope="0.00"/>
        <vehicle id="stopped" x="50.00" y="-1.65" angle="90.00" type="DEFAULT_VEHTYPE" speed="0.00" pos="50.00" lane="VODUGES_beg_0" slope="0.00"/>
    </timestep>
    <timestep time="12.20">
        <vehicle id="overtaking" x="117.83" y="-1.65" angle="90.00" type="DEFAULT_VEHTYPE" speed="13.82" pos="117.83" lane="VODUGES_beg_0" slope="0.00"/>
        <vehicle id="stopped" x="50.00" y="-1.65" angle="90.00" type="DEFAULT_VEHTYPE" speed="0.00" pos="50.00" lane="VODUGES_beg_0" slope="0.00"/>
    </timestep>
    <timestep time="12.40">
        <vehicle id="overtaking" x="120.61" y="-1.65" angle="90.00" type="DEFAULT_VEHTYPE" speed="13.89" pos="120.61" lane="VODUGES_beg_0" slope="0.00"/>
        <vehicle id="stopped" x="50.00" y="-1.65" angle="90.00" type="DEFAULT_VEHTYPE" speed="0.00" pos="50.00" lane="VODUGES_beg_0" slope="0.00"/>
    </timestep>
    <timestep time="12.60">
        <vehicle id="overtaking" x="123.37" y="-1.65" angle="90.00" type="DEFAULT_VEHTYPE" speed="13.80" pos="123.37" lane="VODUGES_beg_0" slope="0.00"/>
        <vehicle id="stopped" x="50.00" y="-1.65" angle="90.00" type="DEFAULT_VEHTYPE" speed="0.00" pos="50.00" lane="VODUGES_beg_0" slope="0.00"/>
    </timestep>
    <timestep time="12.80">
        <vehicle id="overtaking" x="126.12" y="-1.65" angle="90.00" type="DEFAULT_VEHTYPE" speed="13.73" pos="126.12" lane="VODUGES_beg_0" slope="0.00"/>
        <vehicle id="stopped" x="50.00" y="-1.65" angle="90.00" type="DEFAULT_VEHTYPE" speed="0.00" pos="50.00" lane="VODUGES_beg_0" slope="0.00"/>
    </timestep>
    <timestep time="13.00">
        <vehicle id="overtaking" x="128.88" y="-1.65" angle="90.00" type="DEFAULT_VEHTYPE" speed="13.79" pos="128.88" lane="VODUGES_beg_0" slope="0.00"/>
        <vehicle id="stopped" x="50.00" y="-1.65" angle="90.00" type="DEFAULT_VEHTYPE" speed="0.00" pos="50.00" lane="VODUGES_beg_0" slope="0.00"/>
    </timestep>
    <timestep time="13.20">
        <vehicle id="overtaking" x="131.64" y="-1.65" angle="90.00" type="DEFAULT_VEHTYPE" speed="13.83" pos="131.64" lane="VODUGES_beg_0" slope="0.00"/>
        <vehicle id="stopped" x="50.00" y="-1.65" angle="90.00" type="DEFAULT_VEHTYPE" speed="0.00" pos="50.00" lane="VODUGES_beg_0" slope="0.00"/>
    </timestep>
    <timestep time="13.40">
        <vehicle id="overtaking" x="134.40" y="-1.65" angle="90.00" type="DEFAULT_VEHTYPE" speed="13.80" pos="134.40" lane="VODUGES_beg_0" slope="0.00"/>
        <vehicle id="stopped" x="50.00" y="-1.65" angle="90.00" type="DEFAULT_VEHTYPE" speed="0.00" pos="50.00" lane="VODUGES_beg_0" slope="0.00"/>
    </timestep>
    <timestep time="13.60">
        <vehicle id="overtaking" x="137.18" y="-1.65" angle="90.00" type="DEFAULT_VEHTYPE" speed="13.87" pos="137.18" lane="VODUGES_beg_0" slope="0.00"/>
        <vehicle id="stopped" x="50.00" y="-1.65" angle="90.00" type="DEFAULT_VEHTYPE" speed="0.00" pos="50.00" lane="VODUGES_beg_0" slope="0.00"/>
    </timestep>
    <timestep time="13.80">
        <vehicle id="overtaking" x="139.94" y="-1.65" angle="90.00" type="DEFAULT_VEHTYPE" speed="13.83" pos="139.94" lane="VODUGES_beg_0" slope="0.00"/>
        <vehicle id="stopped" x="50.00" y="-1.65" angle="90.00" type="DEFAULT_VEHTYPE" speed="0.00" pos="50.00" lane="VODUGES_beg_0" slope="0.00"/>
    </timestep>
    <timestep time="14.00">
        <vehicle id="overtaking" x="142.68" y="-1.65" angle="90.00" type="DEFAULT_VEHTYPE" speed="13.70" pos="142.68" lane="VODUGES_beg_0" slope="0.00"/>
        <vehicle id="stopped" x="50.00" y="-1.65" angle="90.00" type="DEFAULT_VEHTYPE" speed="0.00" pos="50.00" lane="VODUGES_beg_0" slope="0.00"/>
    </timestep>
    <timestep time="14.20">
        <vehicle id="overtaking" x="145.43" y="-1.65" angle="90.00" type="DEFAULT_VEHTYPE" speed="13.75" pos="145.43" lane="VODUGES_beg_0" slope="0.00"/>
        <vehicle id="stopped" x="50.00" y="-1.65" angle="90.00" type="DEFAULT_VEHTYPE" speed="0.00" pos="50.00" lane="VODUGES_beg_0" slope="0.00"/>
    </timestep>
    <timestep time="14.40">
        <vehicle id="overtaking" x="148.18" y="-1.65" angle="90.00" type="DEFAULT_VEHTYPE" speed="13.73" pos="148.18" lane="VODUGES_beg_0" slope="0.00"/>
        <vehicle id="stopped" x="50.00" y="-1.65" angle="90.00" type="DEFAULT_VEHTYPE" speed="0.00" pos="50.00" lane="VODUGES_beg_0" slope="0.00"/>
    </timestep>
    <timestep time="14.60">
        <vehicle id="overtaking" x="150.95" y="-1.65" angle="90.00" type="DEFAULT_VEHTYPE" speed="13.85" pos="150.95" lane="VODUGES_beg_0" slope="0.00"/>
        <vehicle id="stopped" x="50.00" y="-1.65" angle="90.00" type="DEFAULT_VEHTYPE" speed="0.00" pos="50.00" lane="VODUGES_beg_0" slope="0.00"/>
    </timestep>
    <timestep time="14.80">
        <vehicle id="overtaking" x="153.68" y="-1.65" angle="90.00" type="DEFAULT_VEHTYPE" speed="13.68" pos="153.68" lane="VODUGES_beg_0" slope="0.00"/>
        <vehicle id="stopped" x="50.00" y="-1.65" angle="90.00" type="DEFAULT_VEHTYPE" speed="0.00" pos="50.00" lane="VODUGES_beg_0" slope="0.00"/>
    </timestep>
    <timestep time="15.00">
        <vehicle id="overtaking" x="156.43" y="-1.65" angle="90.00" type="DEFAULT_VEHTYPE" speed="13.76" pos="156.43" lane="VODUGES_beg_0" slope="0.00"/>
        <vehicle id="stopped" x="50.00" y="-1.65" angle="90.00" type="DEFAULT_VEHTYPE" speed="0.00" pos="50.00" lane="VODUGES_beg_0" slope="0.00"/>
    </timestep>
    <timestep time="15.20">
        <vehicle id="overtaking" x="159.21" y="-1.65" angle="90.00" type="DEFAULT_VEHTYPE" speed="13.86" pos="159.21" lane="VODUGES_beg_0" slope="0.00"/>
        <vehicle id="stopped" x="50.00" y="-1.65" angle="90.00" type="DEFAULT_VEHTYPE" speed="0.00" pos="50.00" lane="VODUGES_beg_0" slope="0.00"/>
    </timestep>
    <timestep time="15.40">
        <vehicle id="overtaking" x="161.97" y="-1.65" angle="90.00" type="DEFAULT_VEHTYPE" speed="13.80" pos="161.97" lane="VODUGES_beg_0" slope="0.00"/>
        <vehicle id="stopped" x="50.00" y="-1.65" angle="90.00" type="DEFAULT_VEHTYPE" speed="0.00" pos="50.00" lane="VODUGES_beg_0" slope="0.00"/>
    </timestep>
    <timestep time="15.60">
        <vehicle id="overtaking" x="164.72" y="-1.65" angle="90.00" type="DEFAULT_VEHTYPE" speed="13.78" pos="164.72" lane="VODUGES_beg_0" slope="0.00"/>
        <vehicle id="stopped" x="50.00" y="-1.65" angle="90.00" type="DEFAULT_VEHTYPE" speed="0.00" pos="50.00" lane="VODUGES_beg_0" slope="0.00"/>
    </timestep>
    <timestep time="15.80">
        <vehicle id="overtaking" x="167.49" y="-1.65" angle="90.00" type="DEFAULT_VEHTYPE" speed="13.83" pos="167.49" lane="VODUGES_beg_0" slope="0.00"/>
        <vehicle id="stopped" x="50.00" y="-1.65" angle="90.00" type="DEFAULT_VEHTYPE" speed="0.00" pos="50.00" lane="VODUGES_beg_0" slope="0.00"/>
    </timestep>
    <timestep time="16.00">
        <vehicle id="overtaking" x="170.25" y="-1.65" angle="90.00" type="DEFAULT_VEHTYPE" speed="13.82" pos="170.25" lane="VODUGES_beg_0" slope="0.00"/>
        <vehicle id="stopped" x="50.00" y="-1.65" angle="90.00" type="DEFAULT_VEHTYPE" speed="0.00" pos="50.00" lane="VODUGES_beg_0" slope="0.00"/>
    </timestep>
    <timestep time="16.20">
        <vehicle id="overtaking" x="173.02" y="-1.65" angle="90.00" type="DEFAULT_VEHTYPE" speed="13.82" pos="173.02" lane="VODUGES_beg_0" slope="0.00"/>
        <vehicle id="stopped" x="50.00" y="-1.65" angle="90.00" type="DEFAULT_VEHTYPE" speed="0.00" pos="50.00" lane="VODUGES_beg_0" slope="0.00"/>
    </timestep>
    <timestep time="16.40">
        <vehicle id="overtaking" x="175.79" y="-1.65" angle="90.00" type="DEFAULT_VEHTYPE" speed="13.86" pos="175.79" lane="VODUGES_beg_0" slope="0.00"/>
        <vehicle id="stopped" x="50.00" y="-1.65" angle="90.00" type="DEFAULT_VEHTYPE" speed="0.00" pos="50.00" lane="VODUGES_beg_0" slope="0.00"/>
    </timestep>
    <timestep time="16.60">
        <vehicle id="overtaking" x="178.54" y="-1.65" angle="90.00" type="DEFAULT_VEHTYPE" speed="13.77" pos="178.54" lane="VODUGES_beg_0" slope="0.00"/>