<?xml version="1.0" encoding="UTF-8"?>

<!-- generated on Mon Nov 12 14:33:54 2018 by Eclipse SUMO Version v1_0_1+0617-70ae16b
This data file and the accompanying materials
are made available under the terms of the Eclipse Public License v2.0
which accompanies this distribution, and is available at
http://www.eclipse.org/legal/epl-v20.html
SPDX-License-Identifier: EPL-2.0
<configuration xmlns:xsi="http://www.w3.org/2001/XMLSchema-instance" xsi:noNamespaceSchemaLocation="http://sumo.dlr.de/xsd/sumoConfiguration.xsd">

    <input>
        <net-file value="net2.net.xml"/>
        <route-files value="input_routes.rou.xml"/>
    </input>

    <output>
        <write-license value="true"/>
        <fcd-output value="fcd.xml"/>
        <tripinfo-output value="tripinfos.xml"/>
    </output>

    <processing>
        <default.speeddev value="0"/>
    </processing>

    <report>
        <xml-validation value="never"/>
        <no-step-log value="true"/>
    </report>

</configuration>
-->

<fcd-export xmlns:xsi="http://www.w3.org/2001/XMLSchema-instance" xsi:noNamespaceSchemaLocation="http://sumo.dlr.de/xsd/fcd_file.xsd">
    <timestep time="0.00">
        <vehicle id="stopped" x="40.00" y="-1.60" angle="90.00" type="DEFAULT_VEHTYPE" speed="0.00" pos="40.00" lane="VODUGES_beg_0" slope="0.00"/>
    </timestep>
    <timestep time="1.00">
        <vehicle id="stopped" x="42.20" y="-1.60" angle="90.00" type="DEFAULT_VEHTYPE" speed="2.20" pos="42.20" lane="VODUGES_beg_0" slope="0.00"/>
    </timestep>
    <timestep time="2.00">
        <vehicle id="stopped" x="46.42" y="-1.60" angle="90.00" type="DEFAULT_VEHTYPE" speed="4.22" pos="1.12" lane=":C_4_0" slope="0.00"/>
    </timestep>
    <timestep time="3.00">
        <vehicle id="oncoming1" x="95.30" y="1.60" angle="270.00" type="DEFAULT_VEHTYPE" speed="0.00" pos="100.00" lane="-VODUGES_end_0" slope="0.00"/>
        <vehicle id="oncoming2" x="175.30" y="1.60" angle="270.00" type="DEFAULT_VEHTYPE" speed="0.00" pos="20.00" lane="-VODUGES_end_0" slope="0.00"/>
        <vehicle id="oncoming3" x="195.30" y="1.60" angle="225.00" type="DEFAULT_VEHTYPE" speed="0.00" pos="0.00" lane="-VODUGES_end_0" slope="0.00"/>
        <vehicle id="overtaking" x="0.00" y="-1.60" angle="90.00" type="DEFAULT_VEHTYPE" speed="0.00" pos="0.00" lane="VODUGES_beg_0" slope="0.00"/>
        <vehicle id="stopped" x="52.66" y="-1.60" angle="90.00" type="DEFAULT_VEHTYPE" speed="6.24" pos="7.36" lane=":C_4_0" slope="0.00"/>
        <vehicle id="stopped2" x="40.00" y="-1.60" angle="90.00" type="DEFAULT_VEHTYPE" speed="0.00" pos="40.00" lane="VODUGES_beg_0" slope="0.00"/>
    </timestep>
    <timestep time="4.00">
        <vehicle id="oncoming1" x="93.96" y="1.60" angle="270.00" type="DEFAULT_VEHTYPE" speed="1.34" pos="101.34" lane="-VODUGES_end_0" slope="0.00"/>
        <vehicle id="oncoming2" x="173.24" y="1.60" angle="270.00" type="DEFAULT_VEHTYPE" speed="2.06" pos="22.06" lane="-VODUGES_end_0" slope="0.00"/>
        <vehicle id="oncoming3" x="193.70" y="1.60" angle="250.57" type="DEFAULT_VEHTYPE" speed="1.60" pos="1.60" lane="-VODUGES_end_0" slope="0.00"/>
        <vehicle id="overtaking" x="2.18" y="-1.60" angle="90.00" type="DEFAULT_VEHTYPE" speed="2.18" pos="2.18" lane="VODUGES_beg_0" slope="0.00"/>
        <vehicle id="stopped" x="59.29" y="-1.60" angle="90.00" type="DEFAULT_VEHTYPE" speed="6.62" pos="4.59" lane="VODUGES_end_0" slope="0.00"/>
        <vehicle id="stopped2" x="42.59" y="-1.60" angle="90.00" type="DEFAULT_VEHTYPE" speed="2.59" pos="42.59" lane="VODUGES_beg_0" slope="0.00"/>
    </timestep>
    <timestep time="5.00">
        <vehicle id="oncoming1" x="90.76" y="1.60" angle="270.00" type="DEFAULT_VEHTYPE" speed="3.20" pos="104.54" lane="-VODUGES_end_0" slope="0.00"/>
        <vehicle id="oncoming2" x="168.65" y="1.60" angle="270.00" type="DEFAULT_VEHTYPE" speed="4.59" pos="26.65" lane="-VODUGES_end_0" slope="0.00"/>
        <vehicle id="oncoming3" x="190.35" y="1.60" angle="269.92" type="DEFAULT_VEHTYPE" speed="3.35" pos="4.95" lane="-VODUGES_end_0" slope="0.00"/>
        <vehicle id="overtaking" x="6.65" y="-1.60" angle="90.00" type="DEFAULT_VEHTYPE" speed="4.48" pos="6.65" lane="VODUGES_beg_0" slope="0.00"/>
        <vehicle id="stopped" x="61.48" y="-1.60" angle="90.00" type="DEFAULT_VEHTYPE" speed="2.19" pos="6.78" lane="VODUGES_end_0" slope="0.00"/>
        <vehicle id="stopped2" x="44.39" y="-1.60" angle="90.00" type="DEFAULT_VEHTYPE" speed="1.80" pos="44.39" lane="VODUGES_beg_0" slope="0.00"/>
    </timestep>
    <timestep time="6.00">
        <vehicle id="oncoming1" x="85.78" y="1.60" angle="270.00" type="DEFAULT_VEHTYPE" speed="4.97" pos="109.52" lane="-VODUGES_end_0" slope="0.00"/>
        <vehicle id="oncoming2" x="162.19" y="1.60" angle="270.00" type="DEFAULT_VEHTYPE" speed="6.46" pos="33.11" lane="-VODUGES_end_0" slope="0.00"/>
        <vehicle id="oncoming3" x="184.54" y="1.60" angle="270.00" type="DEFAULT_VEHTYPE" speed="5.81" pos="10.76" lane="-VODUGES_end_0" slope="0.00"/>
        <vehicle id="overtaking" x="12.89" y="-1.60" angle="90.00" type="DEFAULT_VEHTYPE" speed="6.24" pos="12.89" lane="VODUGES_beg_0" slope="0.00"/>
        <vehicle id="stopped" x="62.66" y="-1.60" angle="90.00" type="DEFAULT_VEHTYPE" speed="1.18" pos="7.96" lane="VODUGES_end_0" slope="0.00"/>
        <vehicle id="stopped2" x="44.75" y="-1.60" angle="90.00" type="DEFAULT_VEHTYPE" speed="0.36" pos="44.75" lane="VODUGES_beg_0" slope="0.00"/>
    </timestep>
    <timestep time="7.00">
        <vehicle id="oncoming1" x="78.85" y="1.60" angle="270.00" type="DEFAULT_VEHTYPE" speed="6.93" pos="116.45" lane="-VODUGES_end_0" slope="0.00"/>
        <vehicle id="oncoming2" x="153.63" y="1.60" angle="270.00" type="DEFAULT_VEHTYPE" speed="8.55" pos="41.67" lane="-VODUGES_end_0" slope="0.00"/>
        <vehicle id="oncoming3" x="176.76" y="1.60" angle="270.00" type="DEFAULT_VEHTYPE" speed="7.78" pos="18.54" lane="-VODUGES_end_0" slope="0.00"/>
        <vehicle id="overtaking" x="21.72" y="-1.60" angle="90.00" type="DEFAULT_VEHTYPE" speed="8.83" pos="21.72" lane="VODUGES_beg_0" slope="0.00"/>
        <vehicle id="stopped" x="62.70" y="-1.60" angle="90.00" type="DEFAULT_VEHTYPE" speed="0.03" pos="8.00" lane="VODUGES_end_0" slope="0.00"/>
        <vehicle id="stopped2" x="44.95" y="-1.60" angle="90.00" type="DEFAULT_VEHTYPE" speed="0.20" pos="44.95" lane="VODUGES_beg_0" slope="0.00"/>
    </timestep>
    <timestep time="8.00">
        <vehicle id="oncoming1" x="70.51" y="1.60" angle="270.00" type="DEFAULT_VEHTYPE" speed="8.34" pos="124.79" lane="-VODUGES_end_0" slope="0.00"/>
        <vehicle id="oncoming2" x="143.75" y="1.60" angle="270.00" type="DEFAULT_VEHTYPE" speed="9.89" pos="51.55" lane="-VODUGES_end_0" slope="0.00"/>
        <vehicle id="oncoming3" x="166.67" y="1.60" angle="270.00" type="DEFAULT_VEHTYPE" speed="10.09" pos="28.63" lane="-VODUGES_end_0" slope="0.00"/>
        <vehicle id="overtaking" x="30.57" y="-1.60" angle="90.00" type="DEFAULT_VEHTYPE" speed="8.85" pos="30.57" lane="VODUGES_beg_0" slope="0.00"/>
        <vehicle id="stopped" x="62.70" y="-1.60" angle="90.00" type="DEFAULT_VEHTYPE" speed="0.00" pos="8.00" lane="VODUGES_end_0" slope="0.00"/>
        <vehicle id="stopped2" x="44.98" y="-1.60" angle="90.00" type="DEFAULT_VEHTYPE" speed="0.03" pos="44.98" lane="VODUGES_beg_0" slope="0.00"/>
    </timestep>
    <timestep time="9.00">
        <vehicle id="oncoming1" x="59.96" y="1.60" angle="270.00" type="DEFAULT_VEHTYPE" speed="10.55" pos="135.34" lane="-VODUGES_end_0" slope="0.00"/>
        <vehicle id="oncoming2" x="131.75" y="1.60" angle="270.00" type="DEFAULT_VEHTYPE" speed="12.00" pos="63.55" lane="-VODUGES_end_0" slope="0.00"/>
        <vehicle id="oncoming3" x="156.09" y="1.60" angle="270.00" type="DEFAULT_VEHTYPE" speed="10.57" pos="39.21" lane="-VODUGES_end_0" slope="0.00"/>
        <vehicle id="overtaking" x="35.07" y="-1.60" angle="90.00" type="DEFAULT_VEHTYPE" speed="4.50" pos="35.07" lane="VODUGES_beg_0" slope="0.00"/>
        <vehicle id="stopped" x="62.70" y="-1.60" angle="90.00" type="DEFAULT_VEHTYPE" speed="0.00" pos="8.00" lane="VODUGES_end_0" slope="0.00"/>
        <vehicle id="stopped2" x="44.98" y="-1.60" angle="90.00" type="DEFAULT_VEHTYPE" speed="0.00" pos="44.98" lane="VODUGES_beg_0" slope="0.00"/>
    </timestep>
    <timestep time="10.00">
        <vehicle id="oncoming1" x="47.25" y="1.60" angle="270.00" type="DEFAULT_VEHTYPE" speed="12.72" pos="7.45" lane=":C_3_0" slope="0.00"/>
        <vehicle id="oncoming2" x="118.68" y="1.60" angle="270.00" type="DEFAULT_VEHTYPE" speed="13.07" pos="76.62" lane="-VODUGES_end_0" slope="0.00"/>
        <vehicle id="oncoming3" x="143.60" y="1.60" angle="270.00" type="DEFAULT_VEHTYPE" speed="12.49" pos="51.70" lane="-VODUGES_end_0" slope="0.00"/>
        <vehicle id="overtaking" x="37.20" y="-1.60" angle="90.00" type="DEFAULT_VEHTYPE" speed="2.13" pos="37.20" lane="VODUGES_beg_0" slope="0.00"/>
        <vehicle id="stopped" x="62.70" y="-1.60" angle="90.00" type="DEFAULT_VEHTYPE" speed="0.00" pos="8.00" lane="VODUGES_end_0" slope="0.00"/>
        <vehicle id="stopped2" x="44.98" y="-1.60" angle="90.00" type="DEFAULT_VEHTYPE" speed="0.00" pos="44.98" lane="VODUGES_beg_0" slope="0.00"/>
    </timestep>
    <timestep time="11.00">
        <vehicle id="oncoming1" x="33.62" y="1.60" angle="270.00" type="DEFAULT_VEHTYPE" speed="13.63" pos="11.68" lane="-VODUGES_beg_0" slope="0.00"/>
        <vehicle id="oncoming2" x="105.61" y="1.60" angle="270.00" type="DEFAULT_VEHTYPE" speed="13.06" pos="89.69" lane="-VODUGES_end_0" slope="0.00"/>
        <vehicle id="oncoming3" x="130.51" y="1.60" angle="270.00" type="DEFAULT_VEHTYPE" speed="13.09" pos="64.79" lane="-VODUGES_end_0" slope="0.00"/>
        <vehicle id="overtaking" x="37.46" y="-1.60" angle="90.00" type="DEFAULT_VEHTYPE" speed="0.26" pos="37.46" lane="VODUGES_beg_0" slope="0.00"/>
        <vehicle id="stopped" x="62.70" y="-1.60" angle="90.00" type="DEFAULT_VEHTYPE" speed="0.00" pos="8.00" lane="VODUGES_end_0" slope="0.00"/>
        <vehicle id="stopped2" x="44.98" y="-1.60" angle="90.00" type="DEFAULT_VEHTYPE" speed="0.00" pos="44.98" lane="VODUGES_beg_0" slope="0.00"/>
    </timestep>
    <timestep time="12.00">
        <vehicle id="oncoming1" x="20.93" y="1.60" angle="270.00" type="DEFAULT_VEHTYPE" speed="12.69" pos="24.37" lane="-VODUGES_beg_0" slope="0.00"/>
        <vehicle id="oncoming2" x="92.26" y="1.60" angle="270.00" type="DEFAULT_VEHTYPE" speed="13.35" pos="103.04" lane="-VODUGES_end_0" slope="0.00"/>
        <vehicle id="oncoming3" x="117.24" y="1.60" angle="270.00" type="DEFAULT_VEHTYPE" speed="13.27" pos="78.06" lane="-VODUGES_end_0" slope="0.00"/>
        <vehicle id="overtaking" x="37.47" y="-1.60" angle="90.00" type="DEFAULT_VEHTYPE" speed="0.01" pos="37.47" lane="VODUGES_beg_0" slope="0.00"/>
        <vehicle id="stopped" x="62.70" y="-1.60" angle="90.00" type="DEFAULT_VEHTYPE" speed="0.00" pos="8.00" lane="VODUGES_end_0" slope="0.00"/>
        <vehicle id="stopped2" x="44.98" y="-1.60" angle="90.00" type="DEFAULT_VEHTYPE" speed="0.00" pos="44.98" lane="VODUGES_beg_0" slope="0.00"/>
    </timestep>
    <timestep time="13.00">
        <vehicle id="oncoming1" x="7.59" y="1.60" angle="270.00" type="DEFAULT_VEHTYPE" speed="13.33" pos="37.71" lane="-VODUGES_beg_0" slope="0.00"/>
        <vehicle id="oncoming2" x="78.49" y="1.60" angle="270.00" type="DEFAULT_VEHTYPE" speed="13.78" pos="116.81" lane="-VODUGES_end_0" slope="0.00"/>
        <vehicle id="oncoming3" x="104.21" y="1.60" angle="270.00" type="DEFAULT_VEHTYPE" speed="13.03" pos="91.09" lane="-VODUGES_end_0" slope="0.00"/>
        <vehicle id="overtaking" x="37.47" y="-1.60" angle="90.00" type="DEFAULT_VEHTYPE" speed="0.00" pos="37.47" lane="VODUGES_beg_0" slope="0.00"/>
        <vehicle id="stopped" x="62.70" y="-1.60" angle="90.00" type="DEFAULT_VEHTYPE" speed="0.00" pos="8.00" lane="VODUGES_end_0" slope="0.00"/>
        <vehicle id="stopped2" x="44.98" y="-1.60" angle="90.00" type="DEFAULT_VEHTYPE" speed="0.00" pos="44.98" lane="VODUGES_beg_0" slope="0.00"/>
    </timestep>
    <timestep time="14.00">
        <vehicle id="oncoming2" x="65.15" y="1.60" angle="270.00" type="DEFAULT_VEHTYPE" speed="13.34" pos="130.15" lane="-VODUGES_end_0" slope="0.00"/>
        <vehicle id="oncoming3" x="90.74" y="1.60" angle="270.00" type="DEFAULT_VEHTYPE" speed="13.47" pos="104.56" lane="-VODUGES_end_0" slope="0.00"/>
        <vehicle id="overtaking" x="37.48" y="-1.60" angle="90.00" type="DEFAULT_VEHTYPE" speed="0.00" pos="37.48" lane="VODUGES_beg_0" slope="0.00"/>
        <vehicle id="stopped" x="62.70" y="-1.60" angle="90.00" type="DEFAULT_VEHTYPE" speed="0.00" pos="8.00" lane="VODUGES_end_0" slope="0.00"/>
        <vehicle id="stopped2" x="44.98" y="-1.60" angle="90.00" type="DEFAULT_VEHTYPE" speed="0.00" pos="44.98" lane="VODUGES_beg_0" slope="0.00"/>
    </timestep>
    <timestep time="15.00">
        <vehicle id="oncoming2" x="51.34" y="1.60" angle="270.00" type="DEFAULT_VEHTYPE" speed="13.81" pos="3.36" lane=":C_3_0" slope="0.00"/>
        <vehicle id="oncoming3" x="77.01" y="1.60" angle="270.00" type="DEFAULT_VEHTYPE" speed="13.73" pos="118.29" lane="-VODUGES_end_0" slope="0.00"/>
        <vehicle id="overtaking" x="37.48" y="-1.60" angle="90.00" type="DEFAULT_VEHTYPE" speed="0.00" pos="37.48" lane="VODUGES_beg_0" slope="0.00"/>
        <vehicle id="stopped" x="62.70" y="-1.60" angle="90.00" type="DEFAULT_VEHTYPE" speed="0.00" pos="8.00" lane="VODUGES_end_0" slope="0.00"/>
        <vehicle id="stopped2" x="44.98" y="-1.60" angle="90.00" type="DEFAULT_VEHTYPE" speed="0.00" pos="44.98" lane="VODUGES_beg_0" slope="0.00"/>
    </timestep>
    <timestep time="16.00">
        <vehicle id="oncoming2" x="38.61" y="1.60" angle="270.00" type="DEFAULT_VEHTYPE" speed="12.73" pos="6.69" lane="-VODUGES_beg_0" slope="0.00"/>
        <vehicle id="oncoming3" x="64.22" y="1.60" angle="270.00" type="DEFAULT_VEHTYPE" speed="12.80" pos="131.08" lane="-VODUGES_end_0" slope="0.00"/>
        <vehicle id="overtaking" x="37.48" y="-1.60" angle="90.00" type="DEFAULT_VEHTYPE" speed="0.00" pos="37.48" lane="VODUGES_beg_0" slope="0.00"/>
        <vehicle id="stopped" x="62.70" y="-1.60" angle="90.00" type="DEFAULT_VEHTYPE" speed="0.00" pos="8.00" lane="VODUGES_end_0" slope="0.00"/>
        <vehicle id="stopped2" x="44.98" y="-1.60" angle="90.00" type="DEFAULT_VEHTYPE" speed="0.00" pos="44.98" lane="VODUGES_beg_0" slope="0.00"/>
    </timestep>
    <timestep time="17.00">
        <vehicle id="oncoming2" x="25.17" y="1.60" angle="270.00" type="DEFAULT_VEHTYPE" speed="13.44" pos="20.13" lane="-VODUGES_beg_0" slope="0.00"/>
        <vehicle id="oncoming3" x="50.33" y="1.60" angle="270.00" type="DEFAULT_VEHTYPE" speed="13.88" pos="4.37" lane=":C_3_0" slope="0.00"/>
        <vehicle id="overtaking" x="37.48" y="-1.60" angle="90.00" type="DEFAULT_VEHTYPE" speed="0.00" pos="37.48" lane="VODUGES_beg_0" slope="0.00"/>
        <vehicle id="stopped" x="62.70" y="-1.60" angle="90.00" type="DEFAULT_VEHTYPE" speed="0.00" pos="8.00" lane="VODUGES_end_0" slope="0.00"/>
        <vehicle id="stopped2" x="44.98" y="-1.60" angle="90.00" type="DEFAULT_VEHTYPE" speed="0.00" pos="44.98" lane="VODUGES_beg_0" slope="0.00"/>
    </timestep>
    <timestep time="18.00">
        <vehicle id="oncoming2" x="11.50" y="1.60" angle="270.00" type="DEFAULT_VEHTYPE" speed="13.67" pos="33.80" lane="-VODUGES_beg_0" slope="0.00"/>
        <vehicle id="oncoming3" x="36.59" y="1.60" angle="270.00" type="DEFAULT_VEHTYPE" speed="13.74" pos="8.71" lane="-VODUGES_beg_0" slope="0.00"/>
        <vehicle id="overtaking" x="37.48" y="-1.60" angle="90.00" type="DEFAULT_VEHTYPE" speed="0.00" pos="37.48" lane="VODUGES_beg_0" slope="0.00"/>
        <vehicle id="stopped" x="62.70" y="-1.60" angle="90.00" type="DEFAULT_VEHTYPE" speed="0.00" pos="8.00" lane="VODUGES_end_0" slope="0.00"/>
        <vehicle id="stopped2" x="44.98" y="-1.60" angle="90.00" type="DEFAULT_VEHTYPE" speed="0.00" pos="44.98" lane="VODUGES_beg_0" slope="0.00"/>
    </timestep>
    <timestep time="19.00">
        <vehicle id="oncoming3" x="23.90" y="1.60" angle="270.00" type="DEFAULT_VEHTYPE" speed="12.69" pos="21.40" lane="-VODUGES_beg_0" slope="0.00"/>
        <vehicle id="overtaking" x="37.48" y="-1.60" angle="90.00" type="DEFAULT_VEHTYPE" speed="0.00" pos="37.48" lane="VODUGES_beg_0" slope="0.00"/>
        <vehicle id="stopped" x="62.70" y="-1.60" angle="90.00" type="DEFAULT_VEHTYPE" speed="0.00" pos="8.00" lane="VODUGES_end_0" slope="0.00"/>
        <vehicle id="stopped2" x="44.98" y="-1.60" angle="90.00" type="DEFAULT_VEHTYPE" speed="0.00" pos="44.98" lane="VODUGES_beg_0" slope="0.00"/>
    </timestep>
    <timestep time="20.00">
        <vehicle id="oncoming3" x="10.10" y="1.60" angle="270.00" type="DEFAULT_VEHTYPE" speed="13.80" pos="35.20" lane="-VODUGES_beg_0" slope="0.00"/>
        <vehicle id="overtaking" x="37.48" y="-1.60" angle="90.00" type="DEFAULT_VEHTYPE" speed="0.00" pos="37.48" lane="VODUGES_beg_0" slope="0.00"/>
        <vehicle id="stopped" x="62.70" y="-1.60" angle="90.00" type="DEFAULT_VEHTYPE" speed="0.00" pos="8.00" lane="VODUGES_end_0" slope="0.00"/>
        <vehicle id="stopped2" x="44.98" y="-1.60" angle="90.00" type="DEFAULT_VEHTYPE" speed="0.00" pos="44.98" lane="VODUGES_beg_0" slope="0.00"/>
    </timestep>
    <timestep time="21.00">
        <vehicle id="overtaking" x="37.48" y="-1.60" angle="90.00" type="DEFAULT_VEHTYPE" speed="0.00" pos="37.48" lane="VODUGES_beg_0" slope="0.00"/>
        <vehicle id="stopped" x="62.70" y="-1.60" angle="90.00" type="DEFAULT_VEHTYPE" speed="0.00" pos="8.00" lane="VODUGES_end_0" slope="0.00"/>
        <vehicle id="stopped2" x="44.98" y="-1.60" angle="90.00" type="DEFAULT_VEHTYPE" speed="0.00" pos="44.98" lane="VODUGES_beg_0" slope="0.00"/>
    </timestep>
    <timestep time="22.00">
        <vehicle id="overtaking" x="37.48" y="-1.60" angle="90.00" type="DEFAULT_VEHTYPE" speed="0.00" pos="37.48" lane="VODUGES_beg_0" slope="0.00"/>
        <vehicle id="stopped" x="62.70" y="-1.60" angle="90.00" type="DEFAULT_VEHTYPE" speed="0.00" pos="8.00" lane="VODUGES_end_0" slope="0.00"/>
        <vehicle id="stopped2" x="44.98" y="-1.60" angle="90.00" type="DEFAULT_VEHTYPE" speed="0.00" pos="44.98" lane="VODUGES_beg_0" slope="0.00"/>
    </timestep>
    <timestep time="23.00">
        <vehicle id="overtaking" x="37.48" y="-1.60" angle="90.00" type="DEFAULT_VEHTYPE" speed="0.00" pos="37.48" lane="VODUGES_beg_0" slope="0.00"/>
        <vehicle id="stopped" x="62.70" y="-1.60" angle="90.00" type="DEFAULT_VEHTYPE" speed="0.00" pos="8.00" lane="VODUGES_end_0" slope="0.00"/>
        <vehicle id="stopped2" x="44.98" y="-1.60" angle="90.00" type="DEFAULT_VEHTYPE" speed="0.00" pos="44.98" lane="VODUGES_beg_0" slope="0.00"/>
    </timestep>
    <timestep time="24.00">
        <vehicle id="overtaking" x="37.48" y="-1.60" angle="90.00" type="DEFAULT_VEHTYPE" speed="0.00" pos="37.48" lane="VODUGES_beg_0" slope="0.00"/>
        <vehicle id="stopped" x="62.70" y="-1.60" angle="90.00" type="DEFAULT_VEHTYPE" speed="0.00" pos="8.00" lane="VODUGES_end_0" slope="0.00"/>
        <vehicle id="stopped2" x="44.98" y="-1.60" angle="90.00" type="DEFAULT_VEHTYPE" speed="0.00" pos="44.98" lane="VODUGES_beg_0" slope="0.00"/>
    </timestep>
    <timestep time="25.00">
        <vehicle id="overtaking" x="37.48" y="-1.60" angle="90.00" type="DEFAULT_VEHTYPE" speed="0.00" pos="37.48" lane="VODUGES_beg_0" slope="0.00"/>
        <vehicle id="stopped" x="62.70" y="-1.60" angle="90.00" type="DEFAULT_VEHTYPE" speed="0.00" pos="8.00" lane="VODUGES_end_0" slope="0.00"/>
        <vehicle id="stopped2" x="44.98" y="-1.60" angle="90.00" type="DEFAULT_VEHTYPE" speed="0.00" pos="44.98" lane="VODUGES_beg_0" slope="0.00"/>
    </timestep>
    <timestep time="26.00">
        <vehicle id="overtaking" x="37.48" y="-1.60" angle="90.00" type="DEFAULT_VEHTYPE" speed="0.00" pos="37.48" lane="VODUGES_beg_0" slope="0.00"/>
        <vehicle id="stopped" x="62.70" y="-1.60" angle="90.00" type="DEFAULT_VEHTYPE" speed="0.00" pos="8.00" lane="VODUGES_end_0" slope="0.00"/>
        <vehicle id="stopped2" x="44.98" y="-1.60" angle="90.00" type="DEFAULT_VEHTYPE" speed="0.00" pos="44.98" lane="VODUGES_beg_0" slope="0.00"/>
    </timestep>
    <timestep time="27.00">
        <vehicle id="overtaking" x="37.48" y="-1.60" angle="90.00" type="DEFAULT_VEHTYPE" speed="0.00" pos="37.48" lane="VODUGES_beg_0" slope="0.00"/>
        <vehicle id="stopped" x="62.70" y="-1.60" angle="90.00" type="DEFAULT_VEHTYPE" speed="0.00" pos="8.00" lane="VODUGES_end_0" slope="0.00"/>
        <vehicle id="stopped2" x="44.98" y="-1.60" angle="90.00" type="DEFAULT_VEHTYPE" speed="0.00" pos="44.98" lane="VODUGES_beg_0" slope="0.00"/>
    </timestep>
    <timestep time="28.00">
        <vehicle id="overtaking" x="37.48" y="-1.60" angle="90.00" type="DEFAULT_VEHTYPE" speed="0.00" pos="37.48" lane="VODUGES_beg_0" slope="0.00"/>
        <vehicle id="stopped" x="62.70" y="-1.60" angle="90.00" type="DEFAULT_VEHTYPE" speed="0.00" pos="8.00" lane="VODUGES_end_0" slope="0.00"/>
        <vehicle id="stopped2" x="44.98" y="-1.60" angle="90.00" type="DEFAULT_VEHTYPE" speed="0.00" pos="44.98" lane="VODUGES_beg_0" slope="0.00"/>
    </timestep>
    <timestep time="29.00">
        <vehicle id="overtaking" x="37.48" y="-1.60" angle="90.00" type="DEFAULT_VEHTYPE" speed="0.00" pos="37.48" lane="VODUGES_beg_0" slope="0.00"/>
        <vehicle id="stopped" x="62.70" y="-1.60" angle="90.00" type="DEFAULT_VEHTYPE" speed="0.00" pos="8.00" lane="VODUGES_end_0" slope="0.00"/>
        <vehicle id="stopped2" x="44.98" y="-1.60" angle="90.00" type="DEFAULT_VEHTYPE" speed="0.00" pos="44.98" lane="VODUGES_beg_0" slope="0.00"/>
    </timestep>
    <timestep time="30.00">
        <vehicle id="overtaking" x="37.48" y="-1.60" angle="90.00" type="DEFAULT_VEHTYPE" speed="0.00" pos="37.48" lane="VODUGES_beg_0" slope="0.00"/>
        <vehicle id="stopped" x="62.70" y="-1.60" angle="90.00" type="DEFAULT_VEHTYPE" speed="0.00" pos="8.00" lane="VODUGES_end_0" slope="0.00"/>
        <vehicle id="stopped2" x="44.98" y="-1.60" angle="90.00" type="DEFAULT_VEHTYPE" speed="0.00" pos="44.98" lane="VODUGES_beg_0" slope="0.00"/>
    </timestep>
    <timestep time="31.00">
        <vehicle id="overtaking" x="37.48" y="-1.60" angle="90.00" type="DEFAULT_VEHTYPE" speed="0.00" pos="37.48" lane="VODUGES_beg_0" slope="0.00"/>
        <vehicle id="stopped" x="62.70" y="-1.60" angle="90.00" type="DEFAULT_VEHTYPE" speed="0.00" pos="8.00" lane="VODUGES_end_0" slope="0.00"/>
        <vehicle id="stopped2" x="44.98" y="-1.60" angle="90.00" type="DEFAULT_VEHTYPE" speed="0.00" pos="44.98" lane="VODUGES_beg_0" slope="0.00"/>
    </timestep>
    <timestep time="32.00">
        <vehicle id="overtaking" x="37.48" y="-1.60" angle="90.00" type="DEFAULT_VEHTYPE" speed="0.00" pos="37.48" lane="VODUGES_beg_0" slope="0.00"/>
        <vehicle id="stopped" x="62.70" y="-1.60" angle="90.00" type="DEFAULT_VEHTYPE" speed="0.00" pos="8.00" lane="VODUGES_end_0" slope="0.00"/>
        <vehicle id="stopped2" x="44.98" y="-1.60" angle="90.00" type="DEFAULT_VEHTYPE" speed="0.00" pos="44.98" lane="VODUGES_beg_0" slope="0.00"/>
    </timestep>
    <timestep time="33.00">
        <vehicle id="overtaking" x="37.48" y="-1.60" angle="90.00" type="DEFAULT_VEHTYPE" speed="0.00" pos="37.48" lane="VODUGES_beg_0" slope="0.00"/>
        <vehicle id="stopped" x="62.70" y="-1.60" angle="90.00" type="DEFAULT_VEHTYPE" speed="0.00" pos="8.00" lane="VODUGES_end_0" slope="0.00"/>
        <vehicle id="stopped2" x="44.98" y="-1.60" angle="90.00" type="DEFAULT_VEHTYPE" speed="0.00" pos="44.98" lane="VODUGES_beg_0" slope="0.00"/>
    </timestep>
    <timestep time="34.00">
        <vehicle id="overtaking" x="37.48" y="-1.60" angle="90.00" type="DEFAULT_VEHTYPE" speed="0.00" pos="37.48" lane="VODUGES_beg_0" slope="0.00"/>
        <vehicle id="stopped" x="62.70" y="-1.60" angle="90.00" type="DEFAULT_VEHTYPE" speed="0.00" pos="8.00" lane="VODUGES_end_0" slope="0.00"/>
        <vehicle id="stopped2" x="44.98" y="-1.60" angle="90.00" type="DEFAULT_VEHTYPE" speed="0.00" pos="44.98" lane="VODUGES_beg_0" slope="0.00"/>
    </timestep>
    <timestep time="35.00">
        <vehicle id="overtaking" x="37.48" y="-1.60" angle="90.00" type="DEFAULT_VEHTYPE" speed="0.00" pos="37.48" lane="VODUGES_beg_0" slope="0.00"/>
        <vehicle id="stopped" x="62.70" y="-1.60" angle="90.00" type="DEFAULT_VEHTYPE" speed="0.00" pos="8.00" lane="VODUGES_end_0" slope="0.00"/>
        <vehicle id="stopped2" x="44.98" y="-1.60" angle="90.00" type="DEFAULT_VEHTYPE" speed="0.00" pos="44.98" lane="VODUGES_beg_0" slope="0.00"/>
    </timestep>
    <timestep time="36.00">
        <vehicle id="overtaking" x="37.48" y="-1.60" angle="90.00" type="DEFAULT_VEHTYPE" speed="0.00" pos="37.48" lane="VODUGES_beg_0" slope="0.00"/>
        <vehicle id="stopped" x="62.70" y="-1.60" angle="90.00" type="DEFAULT_VEHTYPE" speed="0.00" pos="8.00" lane="VODUGES_end_0" slope="0.00"/>
        <vehicle id="stopped2" x="44.98" y="-1.60" angle="90.00" type="DEFAULT_VEHTYPE" speed="0.00" pos="44.98" lane="VODUGES_beg_0" slope="0.00"/>
    </timestep>
    <timestep time="37.00">
        <vehicle id="overtaking" x="37.48" y="-1.60" angle="90.00" type="DEFAULT_VEHTYPE" speed="0.00" pos="37.48" lane="VODUGES_beg_0" slope="0.00"/>
        <vehicle id="stopped" x="62.70" y="-1.60" angle="90.00" type="DEFAULT_VEHTYPE" speed="0.00" pos="8.00" lane="VODUGES_end_0" slope="0.00"/>
        <vehicle id="stopped2" x="44.98" y="-1.60" angle="90.00" type="DEFAULT_VEHTYPE" speed="0.00" pos="44.98" lane="VODUGES_beg_0" slope="0.00"/>
    </timestep>
    <timestep time="38.00">
        <vehicle id="overtaking" x="37.48" y="-1.60" angle="90.00" type="DEFAULT_VEHTYPE" speed="0.00" pos="37.48" lane="VODUGES_beg_0" slope="0.00"/>
        <vehicle id="stopped" x="62.70" y="-1.60" angle="90.00" type="DEFAULT_VEHTYPE" speed="0.00" pos="8.00" lane="VODUGES_end_0" slope="0.00"/>
        <vehicle id="stopped2" x="44.98" y="-1.60" angle="90.00" type="DEFAULT_VEHTYPE" speed="0.00" pos="44.98" lane="VODUGES_beg_0" slope="0.00"/>
    </timestep>
    <timestep time="39.00">
        <vehicle id="overtaking" x="37.48" y="-1.60" angle="90.00" type="DEFAULT_VEHTYPE" speed="0.00" pos="37.48" lane="VODUGES_beg_0" slope="0.00"/>
        <vehicle id="stopped" x="62.70" y="-1.60" angle="90.00" type="DEFAULT_VEHTYPE" speed="0.00" pos="8.00" lane="VODUGES_end_0" slope="0.00"/>
        <vehicle id="stopped2" x="44.98" y="-1.60" angle="90.00" type="DEFAULT_VEHTYPE" speed="0.00" pos="44.98" lane="VODUGES_beg_0" slope="0.00"/>
    </timestep>
    <timestep time="40.00">
        <vehicle id="overtaking" x="37.48" y="-1.60" angle="90.00" type="DEFAULT_VEHTYPE" speed="0.00" pos="37.48" lane="VODUGES_beg_0" slope="0.00"/>
        <vehicle id="stopped" x="62.70" y="-1.60" angle="90.00" type="DEFAULT_VEHTYPE" speed="0.00" pos="8.00" lane="VODUGES_end_0" slope="0.00"/>
        <vehicle id="stopped2" x="44.98" y="-1.60" angle="90.00" type="DEFAULT_VEHTYPE" speed="0.00" pos="44.98" lane="VODUGES_beg_0" slope="0.00"/>
    </timestep>
    <timestep time="41.00">
        <vehicle id="overtaking" x="37.48" y="-1.60" angle="90.00" type="DEFAULT_VEHTYPE" speed="0.00" pos="37.48" lane="VODUGES_beg_0" slope="0.00"/>
        <vehicle id="stopped" x="62.70" y="-1.60" angle="90.00" type="DEFAULT_VEHTYPE" speed="0.00" pos="8.00" lane="VODUGES_end_0" slope="0.00"/>
        <vehicle id="stopped2" x="44.98" y="-1.60" angle="90.00" type="DEFAULT_VEHTYPE" speed="0.00" pos="44.98" lane="VODUGES_beg_0" slope="0.00"/>
    </timestep>
    <timestep time="42.00">
        <vehicle id="overtaking" x="37.48" y="-1.60" angle="90.00" type="DEFAULT_VEHTYPE" speed="0.00" pos="37.48" lane="VODUGES_beg_0" slope="0.00"/>
        <vehicle id="stopped" x="62.70" y="-1.60" angle="90.00" type="DEFAULT_VEHTYPE" speed="0.00" pos="8.00" lane="VODUGES_end_0" slope="0.00"/>
        <vehicle id="stopped2" x="44.98" y="-1.60" angle="90.00" type="DEFAULT_VEHTYPE" speed="0.00" pos="44.98" lane="VODUGES_beg_0" slope="0.00"/>
    </timestep>
    <timestep time="43.00">
        <vehicle id="overtaking" x="37.48" y="-1.60" angle="90.00" type="DEFAULT_VEHTYPE" speed="0.00" pos="37.48" lane="VODUGES_beg_0" slope="0.00"/>
        <vehicle id="stopped" x="62.70" y="-1.60" angle="90.00" type="DEFAULT_VEHTYPE" speed="0.00" pos="8.00" lane="VODUGES_end_0" slope="0.00"/>
        <vehicle id="stopped2" x="44.98" y="-1.60" angle="90.00" type="DEFAULT_VEHTYPE" speed="0.00" pos="44.98" lane="VODUGES_beg_0" slope="0.00"/>
    </timestep>
    <timestep time="44.00">
        <vehicle id="overtaking" x="37.48" y="-1.60" angle="90.00" type="DEFAULT_VEHTYPE" speed="0.00" pos="37.48" lane="VODUGES_beg_0" slope="0.00"/>
        <vehicle id="stopped" x="62.70" y="-1.60" angle="90.00" type="DEFAULT_VEHTYPE" speed="0.00" pos="8.00" lane="VODUGES_end_0" slope="0.00"/>
        <vehicle id="stopped2" x="44.98" y="-1.60" angle="90.00" type="DEFAULT_VEHTYPE" speed="0.00" pos="44.98" lane="VODUGES_beg_0" slope="0.00"/>
    </timestep>
    <timestep time="45.00">
        <vehicle id="overtaking" x="37.48" y="-1.60" angle="90.00" type="DEFAULT_VEHTYPE" speed="0.00" pos="37.48" lane="VODUGES_beg_0" slope="0.00"/>
        <vehicle id="stopped" x="62.70" y="-1.60" angle="90.00" type="DEFAULT_VEHTYPE" speed="0.00" pos="8.00" lane="VODUGES_end_0" slope="0.00"/>
        <vehicle id="stopped2" x="44.98" y="-1.60" angle="90.00" type="DEFAULT_VEHTYPE" speed="0.00" pos="44.98" lane="VODUGES_beg_0" slope="0.00"/>
    </timestep>
    <timestep time="46.00">
        <vehicle id="overtaking" x="37.48" y="-1.60" angle="90.00" type="DEFAULT_VEHTYPE" speed="0.00" pos="37.48" lane="VODUGES_beg_0" slope="0.00"/>
        <vehicle id="stopped" x="62.70" y="-1.60" angle="90.00" type="DEFAULT_VEHTYPE" speed="0.00" pos="8.00" lane="VODUGES_end_0" slope="0.00"/>