<?xml version="1.0" encoding="UTF-8"?>

<!-- generated on Mon Nov 12 14:33:54 2018 by Eclipse SUMO Version v1_0_1+0617-70ae16b
This data file and the accompanying materials
are made available under the terms of the Eclipse Public License v2.0
which accompanies this distribution, and is available at
http://www.eclipse.org/legal/epl-v20.html
SPDX-License-Identifier: EPL-2.0
<configuration xmlns:xsi="http://www.w3.org/2001/XMLSchema-instance" xsi:noNamespaceSchemaLocation="http://sumo.dlr.de/xsd/sumoConfiguration.xsd">

    <input>
        <net-file value="net2.net.xml"/>
        <route-files value="input_routes.rou.xml"/>
    </input>

    <output>
        <write-license value="true"/>
        <tripinfo-output value="tripinfos.xml"/>
    </output>

    <processing>
        <default.speeddev value="0"/>
    </processing>

    <report>
        <xml-validation value="never"/>
        <no-step-log value="true"/>
    </report>

</configuration>
-->

<tripinfos xmlns:xsi="http://www.w3.org/2001/XMLSchema-instance" xsi:noNamespaceSchemaLocation="http://sumo.dlr.de/xsd/tripinfo_file.xsd">
    <tripinfo id="stopped" depart="0.00" departLane="VODUGES_end_0" departPos="130.60" departSpeed="0.00" departDelay="0.00" arrival="76.00" arrivalLane="end2_0" arrivalPos="198.50" arrivalSpeed="12.76" duration="76.00" routeLength="214.70" waitingTime="0.00" waitingCount="0" stopTime="51.00" timeLoss="9.38" rerouteNo="0" devices="tripinfo_stopped" vType="DEFAULT_VEHTYPE" speedFactor="1.00" vaporized=""/>
    <tripinfo id="overtaking" depart="0.00" departLane="VODUGES_end_0" departPos="100.00" departSpeed="0.00" departDelay="0.00" arrival="79.00" arrivalLane="end2_0" arrivalPos="198.50" arrivalSpeed="12.61" duration="79.00" routeLength="245.30" waitingTime="51.00" waitingCount="1" stopTime="0.00" timeLoss="60.52" rerouteNo="0" devices="tripinfo_overtaking" vType="DEFAULT_VEHTYPE" speedFactor="1.00" vaporized=""/>
</tripinfos>
