<?xml version="1.0" encoding="UTF-8"?>

<!-- generated on Mon Nov 12 14:33:54 2018 by Eclipse SUMO Version v1_0_1+0617-70ae16b
This data file and the accompanying materials
are made available under the terms of the Eclipse Public License v2.0
which accompanies this distribution, and is available at
http://www.eclipse.org/legal/epl-v20.html
SPDX-License-Identifier: EPL-2.0
<configuration xmlns:xsi="http://www.w3.org/2001/XMLSchema-instance" xsi:noNamespaceSchemaLocation="http://sumo.dlr.de/xsd/sumoConfiguration.xsd">

    <input>
        <net-file value="net2.net.xml"/>
        <route-files value="input_routes.rou.xml"/>
    </input>

    <output>
        <write-license value="true"/>
        <fcd-output value="fcd.xml"/>
        <tripinfo-output value="tripinfos.xml"/>
    </output>

    <processing>
        <default.speeddev value="0"/>
    </processing>

    <report>
        <xml-validation value="never"/>
        <no-step-log value="true"/>
    </report>

</configuration>
-->

<fcd-export xmlns:xsi="http://www.w3.org/2001/XMLSchema-instance" xsi:noNamespaceSchemaLocation="http://sumo.dlr.de/xsd/fcd_file.xsd">
    <timestep time="0.00">
        <vehicle id="stopped" x="40.00" y="-1.60" angle="90.00" type="DEFAULT_VEHTYPE" speed="0.00" pos="40.00" lane="VODUGES_beg_0" slope="0.00"/>
    </timestep>
    <timestep time="1.00">
        <vehicle id="stopped" x="42.20" y="-1.60" angle="90.00" type="DEFAULT_VEHTYPE" speed="2.20" pos="42.20" lane="VODUGES_beg_0" slope="0.00"/>
    </timestep>
    <timestep time="2.00">
        <vehicle id="stopped" x="46.42" y="-1.60" angle="90.00" type="DEFAULT_VEHTYPE" speed="4.22" pos="1.12" lane=":C_4_0" slope="0.00"/>
    </timestep>
    <timestep time="3.00">
        <vehicle id="oncoming1" x="48.40" y="5.70" angle="180.00" type="DEFAULT_VEHTYPE" speed="0.00" pos="94.30" lane="NC_0" slope="0.00"/>
        <vehicle id="oncoming2" x="48.40" y="80.00" angle="180.00" type="DEFAULT_VEHTYPE" speed="0.00" pos="20.00" lane="NC_0" slope="0.00"/>
        <vehicle id="oncoming3" x="48.40" y="100.00" angle="180.00" type="DEFAULT_VEHTYPE" speed="0.00" pos="0.00" lane="NC_0" slope="0.00"/>
        <vehicle id="overtaking" x="0.00" y="-1.60" angle="90.00" type="DEFAULT_VEHTYPE" speed="0.00" pos="0.00" lane="VODUGES_beg_0" slope="0.00"/>
        <vehicle id="stopped" x="52.66" y="-1.60" angle="90.00" type="DEFAULT_VEHTYPE" speed="6.24" pos="7.36" lane=":C_4_0" slope="0.00"/>
        <vehicle id="stopped2" x="40.00" y="-1.60" angle="90.00" type="DEFAULT_VEHTYPE" speed="0.00" pos="40.00" lane="VODUGES_beg_0" slope="0.00"/>
    </timestep>
    <timestep time="4.00">
        <vehicle id="oncoming1" x="48.27" y="3.75" angle="181.52" type="DEFAULT_VEHTYPE" speed="1.96" pos="0.96" lane=":C_0_0" slope="0.00"/>
        <vehicle id="oncoming2" x="48.40" y="77.52" angle="180.00" type="DEFAULT_VEHTYPE" speed="2.48" pos="22.48" lane="NC_0" slope="0.00"/>
        <vehicle id="oncoming3" x="48.40" y="98.62" angle="180.00" type="DEFAULT_VEHTYPE" speed="1.38" pos="1.38" lane="NC_0" slope="0.00"/>
        <vehicle id="overtaking" x="2.18" y="-1.60" angle="90.00" type="DEFAULT_VEHTYPE" speed="2.18" pos="2.18" lane="VODUGES_beg_0" slope="0.00"/>
        <vehicle id="stopped" x="59.29" y="-1.60" angle="90.00" type="DEFAULT_VEHTYPE" speed="6.62" pos="4.59" lane="VODUGES_end_0" slope="0.00"/>
        <vehicle id="stopped2" x="42.59" y="-1.60" angle="90.00" type="DEFAULT_VEHTYPE" speed="2.59" pos="42.59" lane="VODUGES_beg_0" slope="0.00"/>
    </timestep>
    <timestep time="5.00">
        <vehicle id="oncoming1" x="45.93" y="1.69" angle="214.03" type="DEFAULT_VEHTYPE" speed="3.40" pos="4.36" lane=":C_0_0" slope="0.00"/>
        <vehicle id="oncoming2" x="48.40" y="72.65" angle="180.00" type="DEFAULT_VEHTYPE" speed="4.87" pos="27.35" lane="NC_0" slope="0.00"/>
        <vehicle id="oncoming3" x="48.40" y="95.80" angle="180.00" type="DEFAULT_VEHTYPE" speed="2.82" pos="4.20" lane="NC_0" slope="0.00"/>
        <vehicle id="overtaking" x="6.65" y="-1.60" angle="90.00" type="DEFAULT_VEHTYPE" speed="4.48" pos="6.65" lane="VODUGES_beg_0" slope="0.00"/>
        <vehicle id="stopped" x="61.48" y="-1.60" angle="90.00" type="DEFAULT_VEHTYPE" speed="2.19" pos="6.78" lane="VODUGES_end_0" slope="0.00"/>
        <vehicle id="stopped2" x="44.39" y="-1.60" angle="90.00" type="DEFAULT_VEHTYPE" speed="1.80" pos="44.39" lane="VODUGES_beg_0" slope="0.00"/>
    </timestep>
    <timestep time="6.00">
        <vehicle id="oncoming1" x="40.87" y="1.60" angle="269.10" type="DEFAULT_VEHTYPE" speed="5.07" pos="4.43" lane="-VODUGES_beg_0" slope="0.00"/>
        <vehicle id="oncoming2" x="48.40" y="66.37" angle="180.00" type="DEFAULT_VEHTYPE" speed="6.27" pos="33.63" lane="NC_0" slope="0.00"/>
        <vehicle id="oncoming3" x="48.40" y="90.90" angle="180.00" type="DEFAULT_VEHTYPE" speed="4.89" pos="9.10" lane="NC_0" slope="0.00"/>
        <vehicle id="overtaking" x="12.89" y="-1.60" angle="90.00" type="DEFAULT_VEHTYPE" speed="6.24" pos="12.89" lane="VODUGES_beg_0" slope="0.00"/>
        <vehicle id="stopped" x="62.66" y="-1.60" angle="90.00" type="DEFAULT_VEHTYPE" speed="1.18" pos="7.96" lane="VODUGES_end_0" slope="0.00"/>
        <vehicle id="stopped2" x="44.75" y="-1.60" angle="90.00" type="DEFAULT_VEHTYPE" speed="0.36" pos="44.75" lane="VODUGES_beg_0" slope="0.00"/>
    </timestep>
    <timestep time="7.00">
        <vehicle id="oncoming1" x="34.39" y="1.60" angle="270.00" type="DEFAULT_VEHTYPE" speed="6.47" pos="10.91" lane="-VODUGES_beg_0" slope="0.00"/>
        <vehicle id="oncoming2" x="48.40" y="58.55" angle="180.00" type="DEFAULT_VEHTYPE" speed="7.82" pos="41.45" lane="NC_0" slope="0.00"/>
        <vehicle id="oncoming3" x="48.40" y="83.42" angle="180.00" type="DEFAULT_VEHTYPE" speed="7.49" pos="16.58" lane="NC_0" slope="0.00"/>
        <vehicle id="overtaking" x="21.72" y="-1.60" angle="90.00" type="DEFAULT_VEHTYPE" speed="8.83" pos="21.72" lane="VODUGES_beg_0" slope="0.00"/>
        <vehicle id="stopped" x="62.70" y="-1.60" angle="90.00" type="DEFAULT_VEHTYPE" speed="0.03" pos="8.00" lane="VODUGES_end_0" slope="0.00"/>
        <vehicle id="stopped2" x="44.95" y="-1.60" angle="90.00" type="DEFAULT_VEHTYPE" speed="0.20" pos="44.95" lane="VODUGES_beg_0" slope="0.00"/>
    </timestep>
    <timestep time="8.00">
        <vehicle id="oncoming1" x="25.87" y="1.60" angle="270.00" type="DEFAULT_VEHTYPE" speed="8.52" pos="19.43" lane="-VODUGES_beg_0" slope="0.00"/>
        <vehicle id="oncoming2" x="48.40" y="48.68" angle="180.00" type="DEFAULT_VEHTYPE" speed="9.87" pos="51.32" lane="NC_0" slope="0.00"/>
        <vehicle id="oncoming3" x="48.40" y="74.52" angle="180.00" type="DEFAULT_VEHTYPE" speed="8.89" pos="25.48" lane="NC_0" slope="0.00"/>
        <vehicle id="overtaking" x="30.57" y="-1.60" angle="90.00" type="DEFAULT_VEHTYPE" speed="8.85" pos="30.57" lane="VODUGES_beg_0" slope="0.00"/>
        <vehicle id="stopped" x="62.70" y="-1.60" angle="90.00" type="DEFAULT_VEHTYPE" speed="0.00" pos="8.00" lane="VODUGES_end_0" slope="0.00"/>
        <vehicle id="stopped2" x="44.98" y="-1.60" angle="90.00" type="DEFAULT_VEHTYPE" speed="0.03" pos="44.98" lane="VODUGES_beg_0" slope="0.00"/>
    </timestep>
    <timestep time="9.00">
        <vehicle id="oncoming1" x="15.71" y="1.60" angle="270.00" type="DEFAULT_VEHTYPE" speed="10.16" pos="29.59" lane="-VODUGES_beg_0" slope="0.00"/>
        <vehicle id="oncoming2" x="48.40" y="37.08" angle="180.00" type="DEFAULT_VEHTYPE" speed="11.61" pos="62.92" lane="NC_0" slope="0.00"/>
        <vehicle id="oncoming3" x="48.40" y="63.04" angle="180.00" type="DEFAULT_VEHTYPE" speed="11.48" pos="36.96" lane="NC_0" slope="0.00"/>
        <vehicle id="overtaking" x="35.07" y="1.60" angle="90.00" type="DEFAULT_VEHTYPE" speed="4.50" pos="10.23" lane="-VODUGES_beg_0" slope="0.00"/>
        <vehicle id="stopped" x="62.70" y="-1.60" angle="90.00" type="DEFAULT_VEHTYPE" speed="0.00" pos="8.00" lane="VODUGES_end_0" slope="0.00"/>
        <vehicle id="stopped2" x="44.98" y="-1.60" angle="90.00" type="DEFAULT_VEHTYPE" speed="0.00" pos="44.98" lane="VODUGES_beg_0" slope="0.00"/>
    </timestep>
    <timestep time="10.00">
        <vehicle id="oncoming1" x="3.40" y="1.60" angle="270.00" type="DEFAULT_VEHTYPE" speed="12.31" pos="41.90" lane="-VODUGES_beg_0" slope="0.00"/>
        <vehicle id="oncoming2" x="48.40" y="23.78" angle="180.00" type="DEFAULT_VEHTYPE" speed="13.30" pos="76.22" lane="NC_0" slope="0.00"/>
        <vehicle id="oncoming3" x="48.40" y="49.36" angle="180.00" type="DEFAULT_VEHTYPE" speed="13.69" pos="50.64" lane="NC_0" slope="0.00"/>
        <vehicle id="overtaking" x="41.96" y="1.60" angle="90.00" type="DEFAULT_VEHTYPE" speed="6.89" pos="3.34" lane="-VODUGES_beg_0" slope="0.00"/>
        <vehicle id="stopped" x="62.70" y="-1.60" angle="90.00" type="DEFAULT_VEHTYPE" speed="0.00" pos="8.00" lane="VODUGES_end_0" slope="0.00"/>
        <vehicle id="stopped2" x="44.98" y="-1.60" angle="90.00" type="DEFAULT_VEHTYPE" speed="0.00" pos="44.98" lane="VODUGES_beg_0" slope="0.00"/>
    </timestep>
    <timestep time="11.00">
        <vehicle id="oncoming2" x="48.40" y="13.07" angle="180.00" type="DEFAULT_VEHTYPE" speed="10.71" pos="86.93" lane="NC_0" slope="0.00"/>
        <vehicle id="oncoming3" x="48.40" y="36.31" angle="180.00" type="DEFAULT_VEHTYPE" speed="13.04" pos="63.69" lane="NC_0" slope="0.00"/>
        <vehicle id="overtaking" x="50.25" y="1.60" angle="90.00" type="DEFAULT_VEHTYPE" speed="8.29" pos="4.45" lane=":C_3_0" slope="0.00"/>
        <vehicle id="stopped" x="62.70" y="-1.60" angle="90.00" type="DEFAULT_VEHTYPE" speed="0.00" pos="8.00" lane="VODUGES_end_0" slope="0.00"/>
        <vehicle id="stopped2" x="44.98" y="-1.60" angle="90.00" type="DEFAULT_VEHTYPE" speed="0.00" pos="44.98" lane="VODUGES_beg_0" slope="0.00"/>
    </timestep>
    <timestep time="12.00">
        <vehicle id="oncoming2" x="48.40" y="6.87" angle="180.00" type="DEFAULT_VEHTYPE" speed="6.21" pos="93.13" lane="NC_0" slope="0.00"/>
        <vehicle id="oncoming3" x="48.40" y="24.39" angle="180.00" type="DEFAULT_VEHTYPE" speed="11.92" pos="75.61" lane="NC_0" slope="0.00"/>
        <vehicle id="overtaking" x="60.88" y="1.60" angle="90.00" type="DEFAULT_VEHTYPE" speed="10.63" pos="134.42" lane="-VODUGES_end_0" slope="0.00"/>
        <vehicle id="stopped" x="62.70" y="-1.60" angle="90.00" type="DEFAULT_VEHTYPE" speed="0.00" pos="8.00" lane="VODUGES_end_0" slope="0.00"/>
        <vehicle id="stopped2" x="44.98" y="-1.60" angle="90.00" type="DEFAULT_VEHTYPE" speed="0.00" pos="44.98" lane="VODUGES_beg_0" slope="0.00"/>
    </timestep>
    <timestep time="13.00">
        <vehicle id="oncoming2" x="43.92" y="1.60" angle="247.97" type="DEFAULT_VEHTYPE" speed="8.55" pos="1.38" lane="-VODUGES_beg_0" slope="0.00"/>
        <vehicle id="oncoming3" x="48.40" y="16.97" angle="180.00" type="DEFAULT_VEHTYPE" speed="7.42" pos="83.03" lane="NC_0" slope="0.00"/>
        <vehicle id="overtaking" x="72.85" y="-1.60" angle="90.00" type="DEFAULT_VEHTYPE" speed="11.97" pos="18.15" lane="VODUGES_end_0" slope="0.00"/>
        <vehicle id="stopped" x="62.70" y="-1.60" angle="90.00" type="DEFAULT_VEHTYPE" speed="0.00" pos="8.00" lane="VODUGES_end_0" slope="0.00"/>
        <vehicle id="stopped2" x="44.98" y="-1.60" angle="90.00" type="DEFAULT_VEHTYPE" speed="0.00" pos="44.98" lane="VODUGES_beg_0" slope="0.00"/>
    </timestep>
    <timestep time="14.00">
        <vehicle id="oncoming2" x="32.86" y="1.60" angle="270.00" type="DEFAULT_VEHTYPE" speed="11.06" pos="12.44" lane="-VODUGES_beg_0" slope="0.00"/>
        <vehicle id="oncoming3" x="48.40" y="8.93" angle="180.00" type="DEFAULT_VEHTYPE" speed="8.04" pos="91.07" lane="NC_0" slope="0.00"/>
        <vehicle id="overtaking" x="86.68" y="-1.60" angle="90.00" type="DEFAULT_VEHTYPE" speed="13.83" pos="31.98" lane="VODUGES_end_0" slope="0.00"/>
        <vehicle id="stopped" x="62.70" y="-1.60" angle="90.00" type="DEFAULT_VEHTYPE" speed="0.00" pos="8.00" lane="VODUGES_end_0" slope="0.00"/>
        <vehicle id="stopped2" x="44.98" y="-1.60" angle="90.00" type="DEFAULT_VEHTYPE" speed="0.00" pos="44.98" lane="VODUGES_beg_0" slope="0.00"/>
    </timestep>
    <timestep time="15.00">
        <vehicle id="oncoming2" x="19.27" y="1.60" angle="270.00" type="DEFAULT_VEHTYPE" speed="13.59" pos="26.03" lane="-VODUGES_beg_0" slope="0.00"/>
        <vehicle id="oncoming3" x="44.00" y="1.60" angle="246.72" type="DEFAULT_VEHTYPE" speed="10.53" pos="1.30" lane="-VODUGES_beg_0" slope="0.00"/>
        <vehicle id="overtaking" x="99.87" y="-1.60" angle="90.00" type="DEFAULT_VEHTYPE" speed="13.19" pos="45.17" lane="VODUGES_end_0" slope="0.00"/>
        <vehicle id="stopped" x="62.70" y="-1.60" angle="90.00" type="DEFAULT_VEHTYPE" speed="0.00" pos="8.00" lane="VODUGES_end_0" slope="0.00"/>
        <vehicle id="stopped2" x="44.98" y="-1.60" angle="90.00" type="DEFAULT_VEHTYPE" speed="0.00" pos="44.98" lane="VODUGES_beg_0" slope="0.00"/>
    </timestep>
    <timestep time="16.00">
        <vehicle id="oncoming2" x="5.72" y="1.60" angle="270.00" type="DEFAULT_VEHTYPE" speed="13.55" pos="39.58" lane="-VODUGES_beg_0" slope="0.00"/>
        <vehicle id="oncoming3" x="31.21" y="1.60" angle="270.00" type="DEFAULT_VEHTYPE" speed="12.79" pos="14.09" lane="-VODUGES_beg_0" slope="0.00"/>
        <vehicle id="overtaking" x="113.51" y="-1.60" angle="90.00" type="DEFAULT_VEHTYPE" speed="13.63" pos="58.81" lane="VODUGES_end_0" slope="0.00"/>
        <vehicle id="stopped" x="62.70" y="-1.60" angle="90.00" type="DEFAULT_VEHTYPE" speed="0.00" pos="8.00" lane="VODUGES_end_0" slope="0.00"/>
        <vehicle id="stopped2" x="44.98" y="-1.60" angle="90.00" type="DEFAULT_VEHTYPE" speed="0.00" pos="44.98" lane="VODUGES_beg_0" slope="0.00"/>
    </timestep>
    <timestep time="17.00">
        <vehicle id="oncoming3" x="18.22" y="1.60" angle="270.00" type="DEFAULT_VEHTYPE" speed="13.00" pos="27.08" lane="-VODUGES_beg_0" slope="0.00"/>
        <vehicle id="overtaking" x="127.01" y="-1.60" angle="90.00" type="DEFAULT_VEHTYPE" speed="13.50" pos="72.31" lane="VODUGES_end_0" slope="0.00"/>
        <vehicle id="stopped" x="62.70" y="-1.60" angle="90.00" type="DEFAULT_VEHTYPE" speed="0.00" pos="8.00" lane="VODUGES_end_0" slope="0.00"/>
        <vehicle id="stopped2" x="44.98" y="-1.60" angle="90.00" type="DEFAULT_VEHTYPE" speed="0.00" pos="44.98" lane="VODUGES_beg_0" slope="0.00"/>
    </timestep>
    <timestep time="18.00">
        <vehicle id="oncoming3" x="4.79" y="1.60" angle="270.00" type="DEFAULT_VEHTYPE" speed="13.43" pos="40.51" lane="-VODUGES_beg_0" slope="0.00"/>
        <vehicle id="overtaking" x="139.62" y="-1.60" angle="90.00" type="DEFAULT_VEHTYPE" speed="12.62" pos="84.92" lane="VODUGES_end_0" slope="0.00"/>
        <vehicle id="stopped" x="62.70" y="-1.60" angle="90.00" type="DEFAULT_VEHTYPE" speed="0.00" pos="8.00" lane="VODUGES_end_0" slope="0.00"/>
        <vehicle id="stopped2" x="44.98" y="-1.60" angle="90.00" type="DEFAULT_VEHTYPE" speed="0.00" pos="44.98" lane="VODUGES_beg_0" slope="0.00"/>
    </timestep>
    <timestep time="19.00">
        <vehicle id="overtaking" x="152.28" y="-1.60" angle="90.00" type="DEFAULT_VEHTYPE" speed="12.65" pos="97.58" lane="VODUGES_end_0" slope="0.00"/>
        <vehicle id="stopped" x="62.70" y="-1.60" angle="90.00" type="DEFAULT_VEHTYPE" speed="0.00" pos="8.00" lane="VODUGES_end_0" slope="0.00"/>
        <vehicle id="stopped2" x="44.98" y="-1.60" angle="90.00" type="DEFAULT_VEHTYPE" speed="0.00" pos="44.98" lane="VODUGES_beg_0" slope="0.00"/>
    </timestep>
    <timestep time="20.00">
        <vehicle id="overtaking" x="165.61" y="-1.60" angle="90.00" type="DEFAULT_VEHTYPE" speed="13.33" pos="110.91" lane="VODUGES_end_0" slope="0.00"/>
        <vehicle id="stopped" x="62.70" y="-1.60" angle="90.00" type="DEFAULT_VEHTYPE" speed="0.00" pos="8.00" lane="VODUGES_end_0" slope="0.00"/>
        <vehicle id="stopped2" x="44.98" y="-1.60" angle="90.00" type="DEFAULT_VEHTYPE" speed="0.00" pos="44.98" lane="VODUGES_beg_0" slope="0.00"/>
    </timestep>
    <timestep time="21.00">
        <vehicle id="overtaking" x="178.70" y="-1.60" angle="90.00" type="DEFAULT_VEHTYPE" speed="13.09" pos="124.00" lane="VODUGES_end_0" slope="0.00"/>
        <vehicle id="stopped" x="62.70" y="-1.60" angle="90.00" type="DEFAULT_VEHTYPE" speed="0.00" pos="8.00" lane="VODUGES_end_0" slope="0.00"/>
        <vehicle id="stopped2" x="44.98" y="-1.60" angle="90.00" type="DEFAULT_VEHTYPE" speed="0.00" pos="44.98" lane="VODUGES_beg_0" slope="0.00"/>
    </timestep>
    <timestep time="22.00">
        <vehicle id="overtaking" x="191.60" y="-1.60" angle="90.00" type="DEFAULT_VEHTYPE" speed="12.90" pos="136.90" lane="VODUGES_end_0" slope="0.00"/>
        <vehicle id="stopped" x="62.70" y="-1.60" angle="90.00" type="DEFAULT_VEHTYPE" speed="0.00" pos="8.00" lane="VODUGES_end_0" slope="0.00"/>
        <vehicle id="stopped2" x="44.98" y="-1.60" angle="90.00" type="DEFAULT_VEHTYPE" speed="0.00" pos="44.98" lane="VODUGES_beg_0" slope="0.00"/>
    </timestep>
    <timestep time="23.00">
        <vehicle id="stopped" x="62.70" y="-1.60" angle="90.00" type="DEFAULT_VEHTYPE" speed="0.00" pos="8.00" lane="VODUGES_end_0" slope="0.00"/>
        <vehicle id="stopped2" x="44.98" y="-1.60" angle="90.00" type="DEFAULT_VEHTYPE" speed="0.00" pos="44.98" lane="VODUGES_beg_0" slope="0.00"/>
    </timestep>
    <timestep time="24.00">
        <vehicle id="stopped" x="62.70" y="-1.60" angle="90.00" type="DEFAULT_VEHTYPE" speed="0.00" pos="8.00" lane="VODUGES_end_0" slope="0.00"/>
        <vehicle id="stopped2" x="44.98" y="-1.60" angle="90.00" type="DEFAULT_VEHTYPE" speed="0.00" pos="44.98" lane="VODUGES_beg_0" slope="0.00"/>
    </timestep>
    <timestep time="25.00">
        <vehicle id="stopped" x="62.70" y="-1.60" angle="90.00" type="DEFAULT_VEHTYPE" speed="0.00" pos="8.00" lane="VODUGES_end_0" slope="0.00"/>
        <vehicle id="stopped2" x="44.98" y="-1.60" angle="90.00" type="DEFAULT_VEHTYPE" speed="0.00" pos="44.98" lane="VODUGES_beg_0" slope="0.00"/>
    </timestep>
    <timestep time="26.00">
        <vehicle id="stopped" x="62.70" y="-1.60" angle="90.00" type="DEFAULT_VEHTYPE" speed="0.00" pos="8.00" lane="VODUGES_end_0" slope="0.00"/>
        <vehicle id="stopped2" x="44.98" y="-1.60" angle="90.00" type="DEFAULT_VEHTYPE" speed="0.00" pos="44.98" lane="VODUGES_beg_0" slope="0.00"/>
    </timestep>
    <timestep time="27.00">
        <vehicle id="stopped" x="62.70" y="-1.60" angle="90.00" type="DEFAULT_VEHTYPE" speed="0.00" pos="8.00" lane="VODUGES_end_0" slope="0.00"/>
        <vehicle id="stopped2" x="44.98" y="-1.60" angle="90.00" type="DEFAULT_VEHTYPE" speed="0.00" pos="44.98" lane="VODUGES_beg_0" slope="0.00"/>
    </timestep>
    <timestep time="28.00">
        <vehicle id="stopped" x="62.70" y="-1.60" angle="90.00" type="DEFAULT_VEHTYPE" speed="0.00" pos="8.00" lane="VODUGES_end_0" slope="0.00"/>
        <vehicle id="stopped2" x="44.98" y="-1.60" angle="90.00" type="DEFAULT_VEHTYPE" speed="0.00" pos="44.98" lane="VODUGES_beg_0" slope="0.00"/>
    </timestep>
    <timestep time="29.00">
        <vehicle id="stopped" x="62.70" y="-1.60" angle="90.00" type="DEFAULT_VEHTYPE" speed="0.00" pos="8.00" lane="VODUGES_end_0" slope="0.00"/>
        <vehicle id="stopped2" x="44.98" y="-1.60" angle="90.00" type="DEFAULT_VEHTYPE" speed="0.00" pos="44.98" lane="VODUGES_beg_0" slope="0.00"/>
    </timestep>
    <timestep time="30.00">
        <vehicle id="stopped" x="62.70" y="-1.60" angle="90.00" type="DEFAULT_VEHTYPE" speed="0.00" pos="8.00" lane="VODUGES_end_0" slope="0.00"/>
        <vehicle id="stopped2" x="44.98" y="-1.60" angle="90.00" type="DEFAULT_VEHTYPE" speed="0.00" pos="44.98" lane="VODUGES_beg_0" slope="0.00"/>
    </timestep>
    <timestep time="31.00">
        <vehicle id="stopped" x="62.70" y="-1.60" angle="90.00" type="DEFAULT_VEHTYPE" speed="0.00" pos="8.00" lane="VODUGES_end_0" slope="0.00"/>
        <vehicle id="stopped2" x="44.98" y="-1.60" angle="90.00" type="DEFAULT_VEHTYPE" speed="0.00" pos="44.98" lane="VODUGES_beg_0" slope="0.00"/>
    </timestep>
    <timestep time="32.00">
        <vehicle id="stopped" x="62.70" y="-1.60" angle="90.00" type="DEFAULT_VEHTYPE" speed="0.00" pos="8.00" lane="VODUGES_end_0" slope="0.00"/>
        <vehicle id="stopped2" x="44.98" y="-1.60" angle="90.00" type="DEFAULT_VEHTYPE" speed="0.00" pos="44.98" lane="VODUGES_beg_0" slope="0.00"/>
    </timestep>
    <timestep time="33.00">
        <vehicle id="stopped" x="62.70" y="-1.60" angle="90.00" type="DEFAULT_VEHTYPE" speed="0.00" pos="8.00" lane="VODUGES_end_0" slope="0.00"/>
        <vehicle id="stopped2" x="44.98" y="-1.60" angle="90.00" type="DEFAULT_VEHTYPE" speed="0.00" pos="44.98" lane="VODUGES_beg_0" slope="0.00"/>
    </timestep>
    <timestep time="34.00">
        <vehicle id="stopped" x="62.70" y="-1.60" angle="90.00" type="DEFAULT_VEHTYPE" speed="0.00" pos="8.00" lane="VODUGES_end_0" slope="0.00"/>
        <vehicle id="stopped2" x="44.98" y="-1.60" angle="90.00" type="DEFAULT_VEHTYPE" speed="0.00" pos="44.98" lane="VODUGES_beg_0" slope="0.00"/>
    </timestep>
    <timestep time="35.00">
        <vehicle id="stopped" x="62.70" y="-1.60" angle="90.00" type="DEFAULT_VEHTYPE" speed="0.00" pos="8.00" lane="VODUGES_end_0" slope="0.00"/>
        <vehicle id="stopped2" x="44.98" y="-1.60" angle="90.00" type="DEFAULT_VEHTYPE" speed="0.00" pos="44.98" lane="VODUGES_beg_0" slope="0.00"/>
    </timestep>
    <timestep time="36.00">
        <vehicle id="stopped" x="62.70" y="-1.60" angle="90.00" type="DEFAULT_VEHTYPE" speed="0.00" pos="8.00" lane="VODUGES_end_0" slope="0.00"/>
        <vehicle id="stopped2" x="44.98" y="-1.60" angle="90.00" type="DEFAULT_VEHTYPE" speed="0.00" pos="44.98" lane="VODUGES_beg_0" slope="0.00"/>
    </timestep>
    <timestep time="37.00">
        <vehicle id="stopped" x="62.70" y="-1.60" angle="90.00" type="DEFAULT_VEHTYPE" speed="0.00" pos="8.00" lane="VODUGES_end_0" slope="0.00"/>
        <vehicle id="stopped2" x="44.98" y="-1.60" angle="90.00" type="DEFAULT_VEHTYPE" speed="0.00" pos="44.98" lane="VODUGES_beg_0" slope="0.00"/>
    </timestep>
    <timestep time="38.00">
        <vehicle id="stopped" x="62.70" y="-1.60" angle="90.00" type="DEFAULT_VEHTYPE" speed="0.00" pos="8.00" lane="VODUGES_end_0" slope="0.00"/>
        <vehicle id="stopped2" x="44.98" y="-1.60" angle="90.00" type="DEFAULT_VEHTYPE" speed="0.00" pos="44.98" lane="VODUGES_beg_0" slope="0.00"/>
    </timestep>
    <timestep time="39.00">
        <vehicle id="stopped" x="62.70" y="-1.60" angle="90.00" type="DEFAULT_VEHTYPE" speed="0.00" pos="8.00" lane="VODUGES_end_0" slope="0.00"/>
        <vehicle id="stopped2" x="44.98" y="-1.60" angle="90.00" type="DEFAULT_VEHTYPE" speed="0.00" pos="44.98" lane="VODUGES_beg_0" slope="0.00"/>
    </timestep>
    <timestep time="40.00">
        <vehicle id="stopped" x="62.70" y="-1.60" angle="90.00" type="DEFAULT_VEHTYPE" speed="0.00" pos="8.00" lane="VODUGES_end_0" slope="0.00"/>
        <vehicle id="stopped2" x="44.98" y="-1.60" angle="90.00" type="DEFAULT_VEHTYPE" speed="0.00" pos="44.98" lane="VODUGES_beg_0" slope="0.00"/>
    </timestep>
    <timestep time="41.00">
        <vehicle id="stopped" x="62.70" y="-1.60" angle="90.00" type="DEFAULT_VEHTYPE" speed="0.00" pos="8.00" lane="VODUGES_end_0" slope="0.00"/>
        <vehicle id="stopped2" x="44.98" y="-1.60" angle="90.00" type="DEFAULT_VEHTYPE" speed="0.00" pos="44.98" lane="VODUGES_beg_0" slope="0.00"/>
    </timestep>
    <timestep time="42.00">
        <vehicle id="stopped" x="62.70" y="-1.60" angle="90.00" type="DEFAULT_VEHTYPE" speed="0.00" pos="8.00" lane="VODUGES_end_0" slope="0.00"/>
        <vehicle id="stopped2" x="44.98" y="-1.60" angle="90.00" type="DEFAULT_VEHTYPE" speed="0.00" pos="44.98" lane="VODUGES_beg_0" slope="0.00"/>
    </timestep>
    <timestep time="43.00">
        <vehicle id="stopped" x="62.70" y="-1.60" angle="90.00" type="DEFAULT_VEHTYPE" speed="0.00" pos="8.00" lane="VODUGES_end_0" slope="0.00"/>
        <vehicle id="stopped2" x="44.98" y="-1.60" angle="90.00" type="DEFAULT_VEHTYPE" speed="0.00" pos="44.98" lane="VODUGES_beg_0" slope="0.00"/>
    </timestep>
    <timestep time="44.00">
        <vehicle id="stopped" x="62.70" y="-1.60" angle="90.00" type="DEFAULT_VEHTYPE" speed="0.00" pos="8.00" lane="VODUGES_end_0" slope="0.00"/>
        <vehicle id="stopped2" x="44.98" y="-1.60" angle="90.00" type="DEFAULT_VEHTYPE" speed="0.00" pos="44.98" lane="VODUGES_beg_0" slope="0.00"/>
    </timestep>
    <timestep time="45.00">
        <vehicle id="stopped" x="62.70" y="-1.60" angle="90.00" type="DEFAULT_VEHTYPE" speed="0.00" pos="8.00" lane="VODUGES_end_0" slope="0.00"/>
        <vehicle id="stopped2" x="44.98" y="-1.60" angle="90.00" type="DEFAULT_VEHTYPE" speed="0.00" pos="44.98" lane="VODUGES_beg_0" slope="0.00"/>
    </timestep>
    <timestep time="46.00">
        <vehicle id="stopped" x="62.70" y="-1.60" angle="90.00" type="DEFAULT_VEHTYPE" speed="0.00" pos="8.00" lane="VODUGES_end_0" slope="0.00"/>
        <vehicle id="stopped2" x="44.98" y="-1.60" angle="90.00" type="DEFAULT_VEHTYPE" speed="0.00" pos="44.98" lane="VODUGES_beg_0" slope="0.00"/>
    </timestep>
    <timestep time="47.00">
        <vehicle id="stopped" x="62.70" y="-1.60" angle="90.00" type="DEFAULT_VEHTYPE" speed="0.00" pos="8.00" lane="VODUGES_end_0" slope="0.00"/>
        <vehicle id="stopped2" x="44.98" y="-1.60" angle="90.00" type="DEFAULT_VEHTYPE" speed="0.00" pos="44.98" lane="VODUGES_beg_0" slope="0.00"/>
    </timestep>
    <timestep time="48.00">
        <vehicle id="stopped" x="62.70" y="-1.60" angle="90.00" type="DEFAULT_VEHTYPE" speed="0.00" pos="8.00" lane="VODUGES_end_0" slope="0.00"/>
        <vehicle id="stopped2" x="44.98" y="-1.60" angle="90.00" type="DEFAULT_VEHTYPE" speed="0.00" pos="44.98" lane="VODUGES_beg_0" slope="0.00"/>
    </timestep>
    <timestep time="49.00">
        <vehicle id="stopped" x="62.70" y="-1.60" angle="90.00" type="DEFAULT_VEHTYPE" speed="0.00" pos="8.00" lane="VODUGES_end_0" slope="0.00"/>
        <vehicle id="stopped2" x="44.98" y="-1.60" angle="90.00" type="DEFAULT_VEHTYPE" speed="0.00" pos="44.98" lane="VODUGES_beg_0" slope="0.00"/>
    </timestep>
    <timestep time="50.00">
        <vehicle id="stopped" x="62.70" y="-1.60" angle="90.00" type="DEFAULT_VEHTYPE" speed="0.00" pos="8.00" lane="VODUGES_end_0" slope="0.00"/>
        <vehicle id="stopped2" x="44.98" y="-1.60" angle="90.00" type="DEFAULT_VEHTYPE" speed="0.00" pos="44.98" lane="VODUGES_beg_0" slope="0.00"/>
    </timestep>
    <timestep time="51.00">
        <vehicle id="stopped" x="62.70" y="-1.60" angle="90.00" type="DEFAULT_VEHTYPE" speed="0.00" pos="8.00" lane="VODUGES_end_0" slope="0.00"/>
        <vehicle id="stopped2" x="44.98" y="-1.60" angle="90.00" type="DEFAULT_VEHTYPE" speed="0.00" pos="44.98" lane="VODUGES_beg_0" slope="0.00"/>
    </timestep>
    <timestep time="52.00">
        <vehicle id="stopped" x="62.70" y="-1.60" angle="90.00" type="DEFAULT_VEHTYPE" speed="0.00" pos="8.00" lane="VODUGES_end_0" slope="0.00"/>
        <vehicle id="stopped2" x="44.98" y="-1.60" angle="90.00" type="DEFAULT_VEHTYPE" speed="0.00" pos="44.98" lane="VODUGES_beg_0" slope="0.00"/>
    </timestep>
    <timestep time="53.00">
        <vehicle id="stopped" x="62.70" y="-1.60" angle="90.00" type="DEFAULT_VEHTYPE" speed="0.00" pos="8.00" lane="VODUGES_end_0" slope="0.00"/>
        <vehicle id="stopped2" x="44.98" y="-1.60" angle="90.00" type="DEFAULT_VEHTYPE" speed="0.00" pos="44.98" lane="VODUGES_beg_0" slope="0.00"/>
    </timestep>
    <timestep time="54.00">
        <vehicle id="stopped" x="62.70" y="-1.60" angle="90.00" type="DEFAULT_VEHTYPE" speed="0.00" pos="8.00" lane="VODUGES_end_0" slope="0.00"/>
        <vehicle id="stopped2" x="44.98" y="-1.60" angle="90.00" type="DEFAULT_VEHTYPE" speed="0.00" pos="44.98" lane="VODUGES_beg_0" slope="0.00"/>
    </timestep>
    <timestep time="55.00">
        <vehicle id="stopped" x="62.70" y="-1.60" angle="90.00" type="DEFAULT_VEHTYPE" speed="0.00" pos="8.00" lane="VODUGES_end_0" slope="0.00"/>
        <vehicle id="stopped2" x="44.98" y="-1.60" angle="90.00" type="DEFAULT_VEHTYPE" speed="0.00" pos="44.98" lane="VODUGES_beg_0" slope="0.00"/>
    </timestep>
    <timestep time="56.00">
        <vehicle id="stopped" x="62.70" y="-1.60" angle="90.00" type="DEFAULT_VEHTYPE" speed="0.00" pos="8.00" lane="VODUGES_end_0" slope="0.00"/>
        <vehicle id="stopped2" x="44.98" y="-1.60" angle="90.00" type="DEFAULT_VEHTYPE" speed="0.00" pos="44.98" lane="VODUGES_beg_0" slope="0.00"/>
    </timestep>
    <timestep time="57.00">
        <vehicle id="stopped" x="62.70" y="-1.60" angle="90.00" type="DEFAULT_VEHTYPE" speed="0.00" pos="8.00" lane="VODUGES_end_0" slope="0.00"/>
        <vehicle id="stopped2" x="44.98" y="-1.60" angle="90.00" type="DEFAULT_VEHTYPE" speed="0.00" pos="44.98" lane="VODUGES_beg_0" slope="0.00"/>
    </timestep>
    <timestep time="58.00">
        <vehicle id="stopped" x="62.70" y="-1.60" angle="90.00" type="DEFAULT_VEHTYPE" speed="0.00" pos="8.00" lane="VODUGES_end_0" slope="0.00"/>
        <vehicle id="stopped2" x="44.98" y="-1.60" angle="90.00" type="DEFAULT_VEHTYPE" speed="0.00" pos="44.98" lane="VODUGES_beg_0" slope="0.00"/>
    </timestep>
    <timestep time="59.00">
        <vehicle id="stopped" x="62.70" y="-1.60" angle="90.00" type="DEFAULT_VEHTYPE" speed="0.00" pos="8.00" lane="VODUGES_end_0" slope="0.00"/>
        <vehicle id="stopped2" x="44.98" y="-1.60" angle="90.00" type="DEFAULT_VEHTYPE" speed="0.00" pos="44.98" lane="VODUGES_beg_0" slope="0.00"/>
    </timestep>
    <timestep time="60.00">
        <vehicle id="stopped" x="62.70" y="-1.60" angle="90.00" type="DEFAULT_VEHTYPE" speed="0.00" pos="8.00" lane="VODUGES_end_0" slope="0.00"/>
        <vehicle id="stopped2" x="44.98" y="-1.60" angle="90.00" type="DEFAULT_VEHTYPE" speed="0.00" pos="44.98" lane="VODUGES_beg_0" slope="0.00"/>
    </timestep>
    <timestep time="61.00">