<?xml version="1.0" encoding="UTF-8"?>

<!-- generated on Mon Nov 12 14:33:54 2018 by Eclipse SUMO Version v1_0_1+0617-70ae16b
This data file and the accompanying materials
are made available under the terms of the Eclipse Public License v2.0
which accompanies this distribution, and is available at
http://www.eclipse.org/legal/epl-v20.html
SPDX-License-Identifier: EPL-2.0
<configuration xmlns:xsi="http://www.w3.org/2001/XMLSchema-instance" xsi:noNamespaceSchemaLocation="http://sumo.dlr.de/xsd/sumoConfiguration.xsd">

    <input>
        <net-file value="net2.net.xml"/>
        <route-files value="input_routes.rou.xml"/>
    </input>

    <output>
        <write-license value="true"/>
        <fcd-output value="fcd.xml"/>
        <tripinfo-output value="tripinfos.xml"/>
    </output>

    <processing>
        <default.speeddev value="0"/>
    </processing>

    <report>
        <xml-validation value="never"/>
        <no-step-log value="true"/>
    </report>

</configuration>
-->

<tripinfos xmlns:xsi="http://www.w3.org/2001/XMLSchema-instance" xsi:noNamespaceSchemaLocation="http://sumo.dlr.de/xsd/tripinfo_file.xsd">
    <tripinfo id="oncoming1" depart="3.00" departLane="NC_0" departPos="94.30" departSpeed="0.00" departDelay="0.00" arrival="11.00" arrivalLane="-VODUGES_beg_0" arrivalPos="45.30" arrivalSpeed="13.00" duration="8.00" routeLength="51.30" waitingTime="0.00" waitingCount="0" stopTime="0.00" timeLoss="3.62" rerouteNo="0" devices="tripinfo_oncoming1 fcd_oncoming1" vType="DEFAULT_VEHTYPE" speedFactor="1.00" vaporized=""/>
    <tripinfo id="oncoming2" depart="3.00" departLane="NC_0" departPos="20.00" departSpeed="0.00" departDelay="0.00" arrival="17.00" arrivalLane="-VODUGES_beg_0" arrivalPos="45.30" arrivalSpeed="13.28" duration="14.00" routeLength="125.60" waitingTime="0.00" waitingCount="0" stopTime="0.00" timeLoss="4.41" rerouteNo="0" devices="tripinfo_oncoming2 fcd_oncoming2" vType="DEFAULT_VEHTYPE" speedFactor="1.00" vaporized=""/>
    <tripinfo id="oncoming3" depart="3.00" departLane="NC_0" departPos="0.00" departSpeed="0.00" departDelay="0.00" arrival="19.00" arrivalLane="-VODUGES_beg_0" arrivalPos="45.30" arrivalSpeed="12.95" duration="16.00" routeLength="145.60" waitingTime="0.00" waitingCount="0" stopTime="0.00" timeLoss="4.93" rerouteNo="0" devices="tripinfo_oncoming3 fcd_oncoming3" vType="DEFAULT_VEHTYPE" speedFactor="1.00" vaporized=""/>
    <tripinfo id="overtaking" depart="3.00" departLane="VODUGES_beg_0" departPos="0.00" departSpeed="0.00" departDelay="1.00" arrival="23.00" arrivalLane="VODUGES_end_0" arrivalPos="140.60" arrivalSpeed="13.61" duration="20.00" routeLength="195.30" waitingTime="0.00" waitingCount="0" stopTime="0.00" timeLoss="5.23" rerouteNo="0" devices="tripinfo_overtaking fcd_overtaking" vType="DEFAULT_VEHTYPE" speedFactor="1.00" vaporized=""/>
    <tripinfo id="stopped" depart="0.00" departLane="VODUGES_beg_0" departPos="40.00" departSpeed="0.00" departDelay="0.00" arrival="120.00" arrivalLane="VODUGES_end_0" arrivalPos="140.60" arrivalSpeed="13.49" duration="120.00" routeLength="155.30" waitingTime="0.00" waitingCount="0" stopTime="101.00" timeLoss="7.77" rerouteNo="0" devices="tripinfo_stopped fcd_stopped" vType="DEFAULT_VEHTYPE" speedFactor="1.00" vaporized=""/>
    <tripinfo id="stopped2" depart="3.00" departLane="VODUGES_beg_0" departPos="40.00" departSpeed="0.00" departDelay="1.00" arrival="123.00" arrivalLane="VODUGES_end_0" arrivalPos="140.60" arrivalSpeed="13.35" duration="120.00" routeLength="155.30" waitingTime="0.00" waitingCount="0" stopTime="101.00" timeLoss="7.73" rerouteNo="0" devices="tripinfo_stopped2 fcd_stopped2" vType="DEFAULT_VEHTYPE" speedFactor="1.00" vaporized=""/>
</tripinfos>
