<?xml version="1.0" encoding="UTF-8"?>

<!-- generated on Mon Nov 12 14:33:16 2018 by Eclipse SUMO Version v1_0_1+0617-70ae16b
This data file and the accompanying materials
are made available under the terms of the Eclipse Public License v2.0
which accompanies this distribution, and is available at
http://www.eclipse.org/legal/epl-v20.html
SPDX-License-Identifier: EPL-2.0
<configuration xmlns:xsi="http://www.w3.org/2001/XMLSchema-instance" xsi:noNamespaceSchemaLocation="http://sumo.dlr.de/xsd/sumoConfiguration.xsd">

    <input>
        <net-file value="net.net.xml"/>
        <route-files value="input_routes.rou.xml"/>
        <additional-files value="input_additional.add.xml"/>
    </input>

    <output>
        <write-license value="true"/>
    </output>

    <time>
        <begin value="0"/>
        <end value="1000"/>
    </time>

    <processing>
        <default.speeddev value="0"/>
    </processing>

    <report>
        <xml-validation value="never"/>
        <duration-log.disable value="true"/>
        <no-step-log value="true"/>
    </report>

</configuration>
-->

<meandata xmlns:xsi="http://www.w3.org/2001/XMLSchema-instance" xsi:noNamespaceSchemaLocation="http://sumo.dlr.de/xsd/meandata_file.xsd">
    <interval begin="0.00" end="300.00" id="dump_300">
        <edge id="1fi" sampledSeconds="678.13" traveltime="25.59" overlapTraveltime="26.06" density="9.10" occupancy="4.50" waitingTime="0.00" speed="9.73" departed="20" arrived="0" entered="11" left="21" laneChangedFrom="0" laneChangedTo="0"/>
        <edge id="1o" sampledSeconds="564.03" traveltime="46.84" overlapTraveltime="47.33" density="3.85" occupancy="1.90" waitingTime="0.00" speed="10.43" departed="0" arrived="0" entered="12" left="11" laneChangedFrom="0" laneChangedTo="0"/>
        <edge id="1si" sampledSeconds="796.05" traveltime="39.40" overlapTraveltime="41.32" density="11.19" occupancy="1.84" waitingTime="291.00" speed="5.86" departed="0" arrived="0" entered="21" left="13" laneChangedFrom="0" laneChangedTo="0"/>
        <edge id="2fi" sampledSeconds="684.57" traveltime="25.54" overlapTraveltime="26.00" density="9.18" occupancy="4.54" waitingTime="0.00" speed="9.75" departed="20" arrived="0" entered="9" left="25" laneChangedFrom="0" laneChangedTo="0"/>
        <edge id="2o" sampledSeconds="635.16" traveltime="47.06" overlapTraveltime="47.59" density="4.33" occupancy="2.14" waitingTime="0.00" speed="10.37" departed="0" arrived="0" entered="20" left="9" laneChangedFrom="0" laneChangedTo="0"/>
        <edge id="2si" sampledSeconds="827.29" traveltime="35.66" overlapTraveltime="36.33" density="11.63" occupancy="1.92" waitingTime="331.00" speed="6.67" departed="0" arrived="0" entered="25" left="12" laneChangedFrom="0" laneChangedTo="0"/>
        <edge id="3fi" sampledSeconds="985.48" traveltime="26.15" overlapTraveltime="26.63" density="13.22" occupancy="6.55" waitingTime="0.00" speed="9.52" departed="40" arrived="0" entered="0" left="36" laneChangedFrom="0" laneChangedTo="0"/>
        <edge id="3o" sampledSeconds="106.91" traveltime="46.81" overlapTraveltime="47.29" density="0.73" occupancy="0.36" waitingTime="0.00" speed="10.44" departed="0" arrived="0" entered="6" left="0" laneChangedFrom="0" laneChangedTo="0"/>
        <edge id="3si" sampledSeconds="1261.37" traveltime="37.06" overlapTraveltime="37.73" density="17.73" occupancy="2.91" waitingTime="509.00" speed="6.42" departed="0" arrived="0" entered="36" left="32" laneChangedFrom="0" laneChangedTo="0"/>
        <edge id="4fi" sampledSeconds="273.80" traveltime="23.71" overlapTraveltime="24.17" density="3.67" occupancy="1.80" waitingTime="0.00" speed="10.49" departed="0" arrived="0" entered="13" left="11" laneChangedFrom="0" laneChangedTo="0"/>
        <edge id="4o" sampledSeconds="905.47" traveltime="46.96" overlapTraveltime="47.44" density="6.18" occupancy="3.06" waitingTime="0.00" speed="10.41" departed="0" arrived="0" entered="25" left="13" laneChangedFrom="0" laneChangedTo="0"/>
        <edge id="4si" sampledSeconds="357.44" traveltime="30.19" overlapTraveltime="32.70" density="5.02" occupancy="0.82" waitingTime="118.00" speed="7.40" departed="0" arrived="0" entered="11" left="10" laneChangedFrom="0" laneChangedTo="0"/>
    </interval>
    <interval begin="300.00" end="600.00" id="dump_300">
        <edge id="1fi" sampledSeconds="1735.38" traveltime="24.75" overlapTraveltime="25.21" density="23.28" occupancy="11.46" waitingTime="0.00" speed="10.05" departed="29" arrived="0" entered="40" left="72" laneChangedFrom="0" laneChangedTo="0"/>
        <edge id="1o" sampledSeconds="2192.66" traveltime="47.10" overlapTraveltime="47.59" density="14.96" occupancy="7.40" waitingTime="0.00" speed="10.37" departed="0" arrived="0" entered="53" left="41" laneChangedFrom="0" laneChangedTo="0"/>
        <edge id="1si" sampledSeconds="4813.94" traveltime="71.43" overlapTraveltime="73.45" density="67.66" occupancy="11.18" waitingTime="2645.00" speed="3.30" departed="0" arrived="0" entered="72" left="59" laneChangedFrom="0" laneChangedTo="0"/>
        <edge id="2fi" sampledSeconds="2527.77" traveltime="24.51" overlapTraveltime="24.98" density="33.91" occupancy="16.69" waitingTime="0.00" speed="10.15" departed="29" arrived="29" entered="75" left="72" laneChangedFrom="0" laneChangedTo="0"/>
        <edge id="2o" sampledSeconds="3688.28" traveltime="47.07" overlapTraveltime="47.57" density="25.16" occupancy="12.45" waitingTime="0.00" speed="10.38" departed="0" arrived="0" entered="79" left="75" laneChangedFrom="0" laneChangedTo="0"/>
        <edge id="2si" sampledSeconds="3776.19" traveltime="51.24" overlapTraveltime="52.78" density="53.08" occupancy="8.74" waitingTime="1909.00" speed="4.59" departed="0" arrived="0" entered="72" left="74" laneChangedFrom="0" laneChangedTo="0"/>
        <edge id="3fi" sampledSeconds="2312.31" traveltime="25.35" overlapTraveltime="25.82" density="31.02" occupancy="15.33" waitingTime="0.00" speed="9.82" departed="58" arrived="24" entered="35" left="65" laneChangedFrom="0" laneChangedTo="0"/>
        <edge id="3o" sampledSeconds="1805.00" traveltime="47.01" overlapTraveltime="47.54" density="12.31" occupancy="6.09" waitingTime="0.00" speed="10.38" departed="0" arrived="0" entered="40" left="36" laneChangedFrom="0" laneChangedTo="0"/>
        <edge id="3si" sampledSeconds="2986.00" traveltime="45.80" overlapTraveltime="46.83" density="41.97" occupancy="6.92" waitingTime="1485.00" speed="5.17" departed="0" arrived="0" entered="64" left="55" laneChangedFrom="0" laneChangedTo="0"/>
        <edge id="4fi" sampledSeconds="1765.63" traveltime="23.85" overlapTraveltime="24.32" density="23.68" occupancy="11.61" waitingTime="0.00" speed="10.42" departed="0" arrived="0" entered="75" left="69" laneChangedFrom="0" laneChangedTo="0"/>
        <edge id="4o" sampledSeconds="3482.49" traveltime="47.06" overlapTraveltime="47.54" density="23.76" occupancy="11.75" waitingTime="0.00" speed="10.38" departed="0" arrived="0" entered="73" left="76" laneChangedFrom="0" laneChangedTo="0"/>
        <edge id="4si" sampledSeconds="2805.34" traveltime="39.74" overlapTraveltime="41.48" density="39.43" occupancy="6.48" waitingTime="1127.00" speed="5.84" departed="0" arrived="0" entered="69" left="60" laneChangedFrom="0" laneChangedTo="0"/>
    </interval>
    <interval begin="600.00" end="900.00" id="dump_300">
        <edge id="1fi" sampledSeconds="2636.12" traveltime="24.54" overlapTraveltime="25.01" density="35.36" occupancy="17.39" waitingTime="0.00" speed="10.14" departed="30" arrived="14" entered="78" left="90" laneChangedFrom="0" laneChangedTo="0"/>
        <edge id="1o" sampledSeconds="3651.37" traveltime="47.16" overlapTraveltime="47.66" density="24.91" occupancy="12.32" waitingTime="0.00" speed="10.36" departed="0" arrived="0" entered="73" left="77" laneChangedFrom="0" laneChangedTo="0"/>
        <edge id="1si" sampledSeconds="9312.53" traveltime="113.03" overlapTraveltime="114.79" density="130.90" occupancy="21.69" waitingTime="5276.00" speed="2.11" departed="0" arrived="0" entered="90" left="78" laneChangedFrom="0" laneChangedTo="0"/>
        <edge id="2fi" sampledSeconds="2606.88" traveltime="24.59" overlapTraveltime="25.06" density="34.97" occupancy="17.21" waitingTime="0.00" speed="10.12" departed="31" arrived="27" entered="74" left="76" laneChangedFrom="0" laneChangedTo="0"/>
        <edge id="2o" sampledSeconds="3463.00" traveltime="47.11" overlapTraveltime="47.65" density="23.62" occupancy="11.68" waitingTime="0.00" speed="10.36" departed="0" arrived="0" entered="68" left="74" laneChangedFrom="0" laneChangedTo="0"/>
        <edge id="2si" sampledSeconds="3979.79" traveltime="51.45" overlapTraveltime="53.21" density="55.94" occupancy="9.21" waitingTime="1990.00" speed="4.55" departed="0" arrived="0" entered="76" left="79" laneChangedFrom="0" laneChangedTo="0"/>
        <edge id="3fi" sampledSeconds="3014.29" traveltime="24.80" overlapTraveltime="25.27" density="40.43" occupancy="19.93" waitingTime="0.00" speed="10.03" departed="48" arrived="56" entered="73" left="64" laneChangedFrom="0" laneChangedTo="0"/>
        <edge id="3o" sampledSeconds="3566.78" traveltime="47.03" overlapTraveltime="47.54" density="24.33" occupancy="12.04" waitingTime="0.00" speed="10.38" departed="0" arrived="0" entered="76" left="72" laneChangedFrom="0" laneChangedTo="0"/>
        <edge id="3si" sampledSeconds="3430.29" traveltime="50.07" overlapTraveltime="51.75" density="48.22" occupancy="7.94" waitingTime="1747.00" speed="4.68" departed="0" arrived="0" entered="65" left="62" laneChangedFrom="0" laneChangedTo="0"/>
        <edge id="4fi" sampledSeconds="1825.33" traveltime="23.82" overlapTraveltime="24.29" density="24.48" occupancy="12.01" waitingTime="0.00" speed="10.44" departed="0" arrived="0" entered="72" left="78" laneChangedFrom="0" laneChangedTo="0"/>
        <edge id="4o" sampledSeconds="3533.74" traveltime="47.07" overlapTraveltime="47.55" density="24.11" occupancy="11.93" waitingTime="0.00" speed="10.38" departed="0" arrived="0" entered="76" left="71" laneChangedFrom="0" laneChangedTo="0"/>
        <edge id="4si" sampledSeconds="3599.93" traveltime="46.39" overlapTraveltime="48.01" density="50.60" occupancy="8.33" waitingTime="1733.00" speed="5.04" departed="0" arrived="0" entered="78" left="67" laneChangedFrom="0" laneChangedTo="0"/>
    </interval>
    <interval begin="900.00" end="1000.00" id="dump_300">
        <edge id="1fi" sampledSeconds="1144.62" traveltime="32.10" overlapTraveltime="33.56" density="46.06" occupancy="22.61" waitingTime="121.00" speed="7.55" departed="10" arrived="7" entered="26" left="20" laneChangedFrom="0" laneChangedTo="0"/>
        <edge id="1o" sampledSeconds="1211.63" traveltime="47.08" overlapTraveltime="47.59" density="24.80" occupancy="12.26" waitingTime="0.00" speed="10.37" departed="0" arrived="0" entered="27" left="26" laneChangedFrom="0" laneChangedTo="0"/>
        <edge id="1si" sampledSeconds="3468.14" traveltime="152.42" overlapTraveltime="153.82" density="146.24" occupancy="24.20" waitingTime="1717.00" speed="1.57" departed="0" arrived="0" entered="20" left="24" laneChangedFrom="0" laneChangedTo="0"/>
        <edge id="2fi" sampledSeconds="821.14" traveltime="24.49" overlapTraveltime="24.96" density="33.04" occupancy="16.26" waitingTime="0.00" speed="10.16" departed="10" arrived="9" entered="24" left="24" laneChangedFrom="0" laneChangedTo="0"/>
        <edge id="2o" sampledSeconds="1156.64" traveltime="46.88" overlapTraveltime="47.39" density="23.67" occupancy="11.70" waitingTime="0.00" speed="10.42" departed="0" arrived="0" entered="26" left="24" laneChangedFrom="0" laneChangedTo="0"/>
        <edge id="2si" sampledSeconds="1181.92" traveltime="46.77" overlapTraveltime="48.33" density="49.84" occupancy="8.21" waitingTime="546.00" speed="5.01" departed="0" arrived="0" entered="24" left="20" laneChangedFrom="0" laneChangedTo="0"/>
        <edge id="3fi" sampledSeconds="955.00" traveltime="24.88" overlapTraveltime="25.36" density="38.43" occupancy="18.96" waitingTime="0.00" speed="10.00" departed="16" arrived="16" entered="22" left="22" laneChangedFrom="0" laneChangedTo="0"/>
        <edge id="3o" sampledSeconds="1132.88" traveltime="46.89" overlapTraveltime="47.40" density="23.18" occupancy="11.47" waitingTime="0.00" speed="10.42" departed="0" arrived="0" entered="24" left="23" laneChangedFrom="0" laneChangedTo="0"/>
        <edge id="3si" sampledSeconds="1043.55" traveltime="46.60" overlapTraveltime="48.44" density="44.00" occupancy="7.21" waitingTime="461.00" speed="5.00" departed="0" arrived="0" entered="22" left="30" laneChangedFrom="0" laneChangedTo="0"/>
        <edge id="4fi" sampledSeconds="536.23" traveltime="23.78" overlapTraveltime="24.24" density="21.58" occupancy="10.58" waitingTime="0.00" speed="10.46" departed="0" arrived="0" entered="23" left="22" laneChangedFrom="0" laneChangedTo="0"/>
        <edge id="4o" sampledSeconds="1095.40" traveltime="47.10" overlapTraveltime="47.59" density="22.42" occupancy="11.09" waitingTime="0.00" speed="10.37" departed="0" arrived="0" entered="22" left="24" laneChangedFrom="0" laneChangedTo="0"/>
        <edge id="4si" sampledSeconds="1277.87" traveltime="50.80" overlapTraveltime="52.57" density="53.88" occupancy="8.86" waitingTime="591.00" speed="4.61" departed="0" arrived="0" entered="22" left="31" laneChangedFrom="0" laneChangedTo="0"/>
    </interval>
</meandata>
