<?xml version="1.0" encoding="UTF-8"?>

<!-- generated on Mon Nov 12 14:33:16 2018 by Eclipse SUMO Version v1_0_1+0617-70ae16b
This data file and the accompanying materials
are made available under the terms of the Eclipse Public License v2.0
which accompanies this distribution, and is available at
http://www.eclipse.org/legal/epl-v20.html
SPDX-License-Identifier: EPL-2.0
<configuration xmlns:xsi="http://www.w3.org/2001/XMLSchema-instance" xsi:noNamespaceSchemaLocation="http://sumo.dlr.de/xsd/sumoConfiguration.xsd">

    <input>
        <net-file value="net.net.xml"/>
        <route-files value="input_routes.rou.xml"/>
        <additional-files value="input_additional.add.xml"/>
    </input>

    <output>
        <write-license value="true"/>
    </output>

    <time>
        <begin value="0"/>
        <end value="1000"/>
    </time>

    <processing>
        <default.speeddev value="0"/>
    </processing>

    <report>
        <xml-validation value="never"/>
        <duration-log.disable value="true"/>
        <no-step-log value="true"/>
    </report>

</configuration>
-->

<meandata xmlns:xsi="http://www.w3.org/2001/XMLSchema-instance" xsi:noNamespaceSchemaLocation="http://sumo.dlr.de/xsd/meandata_file.xsd">
    <interval begin="0.00" end="60.00" id="dump_60">
        <edge id="1fi" sampledSeconds="0.00" departed="0" arrived="0" entered="0" left="0" laneChangedFrom="0" laneChangedTo="0"/>
        <edge id="1o" sampledSeconds="0.00" departed="0" arrived="0" entered="0" left="0" laneChangedFrom="0" laneChangedTo="0"/>
        <edge id="1si" sampledSeconds="0.00" departed="0" arrived="0" entered="0" left="0" laneChangedFrom="0" laneChangedTo="0"/>
        <edge id="2fi" sampledSeconds="0.00" departed="0" arrived="0" entered="0" left="0" laneChangedFrom="0" laneChangedTo="0"/>
        <edge id="2o" sampledSeconds="0.00" departed="0" arrived="0" entered="0" left="0" laneChangedFrom="0" laneChangedTo="0"/>
        <edge id="2si" sampledSeconds="0.00" departed="0" arrived="0" entered="0" left="0" laneChangedFrom="0" laneChangedTo="0"/>
        <edge id="3fi" sampledSeconds="0.00" departed="0" arrived="0" entered="0" left="0" laneChangedFrom="0" laneChangedTo="0"/>
        <edge id="3o" sampledSeconds="0.00" departed="0" arrived="0" entered="0" left="0" laneChangedFrom="0" laneChangedTo="0"/>
        <edge id="3si" sampledSeconds="0.00" departed="0" arrived="0" entered="0" left="0" laneChangedFrom="0" laneChangedTo="0"/>
        <edge id="4fi" sampledSeconds="0.00" departed="0" arrived="0" entered="0" left="0" laneChangedFrom="0" laneChangedTo="0"/>
        <edge id="4o" sampledSeconds="0.00" departed="0" arrived="0" entered="0" left="0" laneChangedFrom="0" laneChangedTo="0"/>
        <edge id="4si" sampledSeconds="0.00" departed="0" arrived="0" entered="0" left="0" laneChangedFrom="0" laneChangedTo="0"/>
    </interval>
    <interval begin="60.00" end="120.00" id="dump_60">
        <edge id="1fi" sampledSeconds="28.00" traveltime="28.65" overlapTraveltime="29.23" density="1.88" occupancy="0.94" waitingTime="0.00" speed="8.67" departed="2" arrived="0" entered="0" left="0" laneChangedFrom="0" laneChangedTo="0"/>
        <edge id="1o" sampledSeconds="0.00" departed="0" arrived="0" entered="0" left="0" laneChangedFrom="0" laneChangedTo="0"/>
        <edge id="1si" sampledSeconds="0.00" departed="0" arrived="0" entered="0" left="0" laneChangedFrom="0" laneChangedTo="0"/>
        <edge id="2fi" sampledSeconds="28.00" traveltime="28.45" overlapTraveltime="29.02" density="1.88" occupancy="0.94" waitingTime="0.00" speed="8.74" departed="2" arrived="0" entered="0" left="0" laneChangedFrom="0" laneChangedTo="0"/>
        <edge id="2o" sampledSeconds="0.00" departed="0" arrived="0" entered="0" left="0" laneChangedFrom="0" laneChangedTo="0"/>
        <edge id="2si" sampledSeconds="0.00" departed="0" arrived="0" entered="0" left="0" laneChangedFrom="0" laneChangedTo="0"/>
        <edge id="3fi" sampledSeconds="50.00" traveltime="28.72" overlapTraveltime="29.30" density="3.35" occupancy="1.68" waitingTime="0.00" speed="8.65" departed="4" arrived="0" entered="0" left="0" laneChangedFrom="0" laneChangedTo="0"/>
        <edge id="3o" sampledSeconds="0.00" departed="0" arrived="0" entered="0" left="0" laneChangedFrom="0" laneChangedTo="0"/>
        <edge id="3si" sampledSeconds="0.00" departed="0" arrived="0" entered="0" left="0" laneChangedFrom="0" laneChangedTo="0"/>
        <edge id="4fi" sampledSeconds="0.00" departed="0" arrived="0" entered="0" left="0" laneChangedFrom="0" laneChangedTo="0"/>
        <edge id="4o" sampledSeconds="0.00" departed="0" arrived="0" entered="0" left="0" laneChangedFrom="0" laneChangedTo="0"/>
        <edge id="4si" sampledSeconds="0.00" departed="0" arrived="0" entered="0" left="0" laneChangedFrom="0" laneChangedTo="0"/>
    </interval>
    <interval begin="120.00" end="180.00" id="dump_60">
        <edge id="1fi" sampledSeconds="157.00" traveltime="26.28" overlapTraveltime="26.73" density="10.53" occupancy="5.22" waitingTime="0.00" speed="9.48" departed="6" arrived="0" entered="0" left="6" laneChangedFrom="0" laneChangedTo="0"/>
        <edge id="1o" sampledSeconds="68.58" traveltime="46.65" overlapTraveltime="47.13" density="2.34" occupancy="1.16" waitingTime="0.00" speed="10.47" departed="0" arrived="0" entered="3" left="0" laneChangedFrom="0" laneChangedTo="0"/>
        <edge id="1si" sampledSeconds="91.29" traveltime="18.29" overlapTraveltime="18.94" density="6.42" occupancy="1.04" waitingTime="0.00" speed="12.78" departed="0" arrived="0" entered="6" left="4" laneChangedFrom="0" laneChangedTo="0"/>
        <edge id="2fi" sampledSeconds="156.06" traveltime="25.93" overlapTraveltime="26.39" density="10.47" occupancy="5.19" waitingTime="0.00" speed="9.61" departed="6" arrived="0" entered="0" left="6" laneChangedFrom="0" laneChangedTo="0"/>
        <edge id="2o" sampledSeconds="0.00" departed="0" arrived="0" entered="0" left="0" laneChangedFrom="0" laneChangedTo="0"/>
        <edge id="2si" sampledSeconds="94.82" traveltime="19.08" overlapTraveltime="19.50" density="6.66" occupancy="1.09" waitingTime="2.00" speed="12.42" departed="0" arrived="0" entered="6" left="3" laneChangedFrom="0" laneChangedTo="0"/>
        <edge id="3fi" sampledSeconds="311.69" traveltime="26.06" overlapTraveltime="26.53" density="20.90" occupancy="10.36" waitingTime="0.00" speed="9.55" departed="12" arrived="0" entered="0" left="12" laneChangedFrom="0" laneChangedTo="0"/>
        <edge id="3o" sampledSeconds="0.00" departed="0" arrived="0" entered="0" left="0" laneChangedFrom="0" laneChangedTo="0"/>
        <edge id="3si" sampledSeconds="318.42" traveltime="35.22" overlapTraveltime="35.97" density="22.38" occupancy="3.70" waitingTime="138.00" speed="6.73" departed="0" arrived="0" entered="12" left="0" laneChangedFrom="0" laneChangedTo="0"/>
        <edge id="4fi" sampledSeconds="0.00" departed="0" arrived="0" entered="0" left="0" laneChangedFrom="0" laneChangedTo="0"/>
        <edge id="4o" sampledSeconds="68.34" traveltime="46.27" overlapTraveltime="46.74" density="2.33" occupancy="1.15" waitingTime="0.00" speed="10.56" departed="0" arrived="0" entered="4" left="0" laneChangedFrom="0" laneChangedTo="0"/>
        <edge id="4si" sampledSeconds="0.00" departed="0" arrived="0" entered="0" left="0" laneChangedFrom="0" laneChangedTo="0"/>
    </interval>
    <interval begin="180.00" end="240.00" id="dump_60">
        <edge id="1fi" sampledSeconds="229.06" traveltime="25.27" overlapTraveltime="25.73" density="15.36" occupancy="7.59" waitingTime="0.00" speed="9.85" departed="6" arrived="0" entered="3" left="9" laneChangedFrom="0" laneChangedTo="0"/>
        <edge id="1o" sampledSeconds="105.86" traveltime="46.96" overlapTraveltime="47.50" density="3.61" occupancy="1.77" waitingTime="0.00" speed="10.39" departed="0" arrived="0" entered="6" left="3" laneChangedFrom="0" laneChangedTo="0"/>
        <edge id="1si" sampledSeconds="306.33" traveltime="39.40" overlapTraveltime="41.63" density="21.53" occupancy="3.55" waitingTime="127.00" speed="5.82" departed="0" arrived="0" entered="9" left="3" laneChangedFrom="0" laneChangedTo="0"/>
        <edge id="2fi" sampledSeconds="171.97" traveltime="25.45" overlapTraveltime="25.92" density="11.53" occupancy="5.68" waitingTime="0.00" speed="9.78" departed="5" arrived="0" entered="5" left="6" laneChangedFrom="0" laneChangedTo="0"/>
        <edge id="2o" sampledSeconds="317.30" traveltime="47.08" overlapTraveltime="47.57" density="10.82" occupancy="5.35" waitingTime="0.00" speed="10.38" departed="0" arrived="0" entered="8" left="5" laneChangedFrom="0" laneChangedTo="0"/>
        <edge id="2si" sampledSeconds="305.39" traveltime="50.03" overlapTraveltime="50.67" density="21.46" occupancy="3.53" waitingTime="156.00" speed="4.78" departed="0" arrived="0" entered="6" left="7" laneChangedFrom="0" laneChangedTo="0"/>
        <edge id="3fi" sampledSeconds="311.51" traveltime="26.04" overlapTraveltime="26.52" density="20.89" occupancy="10.36" waitingTime="0.00" speed="9.56" departed="12" arrived="0" entered="0" left="11" laneChangedFrom="0" laneChangedTo="0"/>
        <edge id="3o" sampledSeconds="0.00" departed="0" arrived="0" entered="0" left="0" laneChangedFrom="0" laneChangedTo="0"/>
        <edge id="3si" sampledSeconds="350.36" traveltime="27.98" overlapTraveltime="28.68" density="24.62" occupancy="4.02" waitingTime="83.00" speed="8.44" departed="0" arrived="0" entered="11" left="14" laneChangedFrom="0" laneChangedTo="0"/>
        <edge id="4fi" sampledSeconds="108.60" traveltime="23.69" overlapTraveltime="24.15" density="7.28" occupancy="3.56" waitingTime="0.00" speed="10.50" departed="0" arrived="0" entered="8" left="3" laneChangedFrom="0" laneChangedTo="0"/>
        <edge id="4o" sampledSeconds="428.01" traveltime="46.99" overlapTraveltime="47.47" density="14.60" occupancy="7.24" waitingTime="0.00" speed="10.40" departed="0" arrived="0" entered="7" left="9" laneChangedFrom="0" laneChangedTo="0"/>
        <edge id="4si" sampledSeconds="31.58" traveltime="19.92" overlapTraveltime="20.34" density="2.22" occupancy="0.36" waitingTime="0.00" speed="11.91" departed="0" arrived="0" entered="3" left="0" laneChangedFrom="0" laneChangedTo="0"/>
    </interval>
    <interval begin="240.00" end="300.00" id="dump_60">
        <edge id="1fi" sampledSeconds="264.06" traveltime="25.19" overlapTraveltime="25.67" density="17.71" occupancy="8.75" waitingTime="0.00" speed="9.88" departed="6" arrived="0" entered="8" left="6" laneChangedFrom="0" laneChangedTo="0"/>
        <edge id="1o" sampledSeconds="389.59" traveltime="46.84" overlapTraveltime="47.32" density="13.29" occupancy="6.60" waitingTime="0.00" speed="10.43" departed="0" arrived="0" entered="3" left="8" laneChangedFrom="0" laneChangedTo="0"/>
        <edge id="1si" sampledSeconds="398.43" traveltime="53.81" overlapTraveltime="56.23" density="28.00" occupancy="4.60" waitingTime="164.00" speed="4.31" departed="0" arrived="0" entered="6" left="6" laneChangedFrom="0" laneChangedTo="0"/>
        <edge id="2fi" sampledSeconds="328.55" traveltime="25.17" overlapTraveltime="25.63" density="22.04" occupancy="10.88" waitingTime="0.00" speed="9.89" departed="7" arrived="0" entered="4" left="13" laneChangedFrom="0" laneChangedTo="0"/>
        <edge id="2o" sampledSeconds="317.86" traveltime="47.05" overlapTraveltime="47.60" density="10.84" occupancy="5.35" waitingTime="0.00" speed="10.37" departed="0" arrived="0" entered="12" left="4" laneChangedFrom="0" laneChangedTo="0"/>
        <edge id="2si" sampledSeconds="427.08" traveltime="35.24" overlapTraveltime="35.94" density="30.01" occupancy="4.96" waitingTime="173.00" speed="6.74" departed="0" arrived="0" entered="13" left="2" laneChangedFrom="0" laneChangedTo="0"/>
        <edge id="3fi" sampledSeconds="312.28" traveltime="25.98" overlapTraveltime="26.44" density="20.94" occupancy="10.37" waitingTime="0.00" speed="9.59" departed="12" arrived="0" entered="0" left="13" laneChangedFrom="0" laneChangedTo="0"/>
        <edge id="3o" sampledSeconds="106.91" traveltime="46.81" overlapTraveltime="47.29" density="3.65" occupancy="1.80" waitingTime="0.00" speed="10.44" departed="0" arrived="0" entered="6" left="0" laneChangedFrom="0" laneChangedTo="0"/>
        <edge id="3si" sampledSeconds="592.58" traveltime="47.46" overlapTraveltime="47.93" density="41.65" occupancy="6.84" waitingTime="288.00" speed="5.05" departed="0" arrived="0" entered="13" left="18" laneChangedFrom="0" laneChangedTo="0"/>
        <edge id="4fi" sampledSeconds="165.19" traveltime="23.72" overlapTraveltime="24.19" density="11.08" occupancy="5.44" waitingTime="0.00" speed="10.48" departed="0" arrived="0" entered="5" left="8" laneChangedFrom="0" laneChangedTo="0"/>
        <edge id="4o" sampledSeconds="409.12" traveltime="47.05" overlapTraveltime="47.53" density="13.95" occupancy="6.89" waitingTime="0.00" speed="10.39" departed="0" arrived="0" entered="14" left="4" laneChangedFrom="0" laneChangedTo="0"/>
        <edge id="4si" sampledSeconds="325.86" traveltime="31.93" overlapTraveltime="34.75" density="22.90" occupancy="3.75" waitingTime="118.00" speed="6.97" departed="0" arrived="0" entered="8" left="10" laneChangedFrom="0" laneChangedTo="0"/>
    </interval>
    <interval begin="300.00" end="360.00" id="dump_60">
        <edge id="1fi" sampledSeconds="267.57" traveltime="25.16" overlapTraveltime="25.59" density="17.95" occupancy="8.85" waitingTime="0.00" speed="9.91" departed="6" arrived="0" entered="1" left="15" laneChangedFrom="0" laneChangedTo="0"/>
        <edge id="1o" sampledSeconds="281.07" traveltime="46.98" overlapTraveltime="47.49" density="9.59" occupancy="4.75" waitingTime="0.00" speed="10.39" departed="0" arrived="0" entered="9" left="1" laneChangedFrom="0" laneChangedTo="0"/>
        <edge id="1si" sampledSeconds="686.01" traveltime="43.76" overlapTraveltime="45.76" density="48.21" occupancy="7.91" waitingTime="221.00" speed="5.29" departed="0" arrived="0" entered="15" left="16" laneChangedFrom="0" laneChangedTo="0"/>
        <edge id="2fi" sampledSeconds="433.80" traveltime="24.68" overlapTraveltime="25.15" density="29.09" occupancy="14.32" waitingTime="0.00" speed="10.08" departed="6" arrived="3" entered="14" left="12" laneChangedFrom="0" laneChangedTo="0"/>
        <edge id="2o" sampledSeconds="720.42" traveltime="47.09" overlapTraveltime="47.61" density="24.57" occupancy="12.17" waitingTime="0.00" speed="10.37" departed="0" arrived="0" entered="12" left="14" laneChangedFrom="0" laneChangedTo="0"/>
        <edge id="2si" sampledSeconds="442.12" traveltime="46.64" overlapTraveltime="47.09" density="31.07" occupancy="5.09" waitingTime="213.00" speed="5.14" departed="0" arrived="0" entered="11" left="16" laneChangedFrom="0" laneChangedTo="0"/>
        <edge id="3fi" sampledSeconds="422.06" traveltime="25.64" overlapTraveltime="26.12" density="28.31" occupancy="14.01" waitingTime="0.00" speed="9.70" departed="12" arrived="5" entered="7" left="9" laneChangedFrom="0" laneChangedTo="0"/>
        <edge id="3o" sampledSeconds="227.33" traveltime="47.32" overlapTraveltime="47.97" density="7.75" occupancy="3.84" waitingTime="0.00" speed="10.29" departed="0" arrived="0" entered="1" left="7" laneChangedFrom="0" laneChangedTo="0"/>
        <edge id="3si" sampledSeconds="546.60" traveltime="53.38" overlapTraveltime="54.51" density="38.41" occupancy="6.38" waitingTime="332.00" speed="4.44" departed="0" arrived="0" entered="9" left="0" laneChangedFrom="0" laneChangedTo="0"/>
        <edge id="4fi" sampledSeconds="342.99" traveltime="23.83" overlapTraveltime="24.29" density="23.00" occupancy="11.30" waitingTime="0.00" speed="10.43" departed="0" arrived="0" entered="13" left="13" laneChangedFrom="0" laneChangedTo="0"/>
        <edge id="4o" sampledSeconds="649.10" traveltime="47.17" overlapTraveltime="47.65" density="22.14" occupancy="10.95" waitingTime="0.00" speed="10.36" departed="0" arrived="0" entered="15" left="13" laneChangedFrom="0" laneChangedTo="0"/>
        <edge id="4si" sampledSeconds="237.85" traveltime="27.95" overlapTraveltime="28.86" density="16.72" occupancy="2.74" waitingTime="63.00" speed="8.39" departed="0" arrived="0" entered="13" left="1" laneChangedFrom="0" laneChangedTo="0"/>
    </interval>
    <interval begin="360.00" end="420.00" id="dump_60">
        <edge id="1fi" sampledSeconds="374.82" traveltime="24.74" overlapTraveltime="25.20" density="25.14" occupancy="12.38" waitingTime="0.00" speed="10.06" departed="6" arrived="0" entered="9" left="15" laneChangedFrom="0" laneChangedTo="0"/>
        <edge id="1o" sampledSeconds="179.63" traveltime="46.98" overlapTraveltime="47.49" density="6.13" occupancy="3.00" waitingTime="0.00" speed="10.39" departed="0" arrived="0" entered="5" left="9" laneChangedFrom="0" laneChangedTo="0"/>
        <edge id="1si" sampledSeconds="698.94" traveltime="55.69" overlapTraveltime="57.35" density="49.12" occupancy="8.12" waitingTime="377.00" speed="4.22" departed="0" arrived="0" entered="15" left="8" laneChangedFrom="0" laneChangedTo="0"/>
        <edge id="2fi" sampledSeconds="485.56" traveltime="24.53" overlapTraveltime="25.00" density="32.57" occupancy="16.03" waitingTime="0.00" speed="10.14" departed="5" arrived="8" entered="14" left="13" laneChangedFrom="0" laneChangedTo="0"/>
        <edge id="2o" sampledSeconds="698.15" traveltime="47.21" overlapTraveltime="47.69" density="23.81" occupancy="11.76" waitingTime="0.00" speed="10.35" departed="0" arrived="0" entered="19" left="14" laneChangedFrom="0" laneChangedTo="0"/>
        <edge id="2si" sampledSeconds="910.94" traveltime="57.05" overlapTraveltime="58.52" density="64.02" occupancy="10.57" waitingTime="504.00" speed="4.14" departed="0" arrived="0" entered="14" left="15" laneChangedFrom="0" laneChangedTo="0"/>
        <edge id="3fi" sampledSeconds="379.53" traveltime="25.66" overlapTraveltime="26.13" density="25.45" occupancy="12.58" waitingTime="0.00" speed="9.70" departed="11" arrived="2" entered="3" left="15" laneChangedFrom="0" laneChangedTo="0"/>
        <edge id="3o" sampledSeconds="385.45" traveltime="47.02" overlapTraveltime="47.54" density="13.15" occupancy="6.52" waitingTime="0.00" speed="10.38" departed="0" arrived="0" entered="9" left="4" laneChangedFrom="0" laneChangedTo="0"/>
        <edge id="3si" sampledSeconds="449.97" traveltime="32.96" overlapTraveltime="33.61" density="31.62" occupancy="5.18" waitingTime="134.00" speed="7.20" departed="0" arrived="0" entered="14" left="16" laneChangedFrom="0" laneChangedTo="0"/>
        <edge id="4fi" sampledSeconds="342.32" traveltime="23.85" overlapTraveltime="24.32" density="22.96" occupancy="11.25" waitingTime="0.00" speed="10.42" departed="0" arrived="0" entered="18" left="11" laneChangedFrom="0" laneChangedTo="0"/>
        <edge id="4o" sampledSeconds="740.84" traveltime="47.10" overlapTraveltime="47.57" density="25.27" occupancy="12.50" waitingTime="0.00" speed="10.38" departed="0" arrived="0" entered="15" left="18" laneChangedFrom="0" laneChangedTo="0"/>
        <edge id="4si" sampledSeconds="475.56" traveltime="31.50" overlapTraveltime="33.79" density="33.42" occupancy="5.47" waitingTime="123.00" speed="7.17" departed="0" arrived="0" entered="11" left="15" laneChangedFrom="0" laneChangedTo="0"/>
    </interval>
    <interval begin="420.00" end="480.00" id="dump_60">
        <edge id="1fi" sampledSeconds="253.73" traveltime="25.12" overlapTraveltime="25.60" density="17.02" occupancy="8.41" waitingTime="0.00" speed="9.90" departed="6" arrived="0" entered="7" left="6" laneChangedFrom="0" laneChangedTo="0"/>
        <edge id="1o" sampledSeconds="535.07" traveltime="47.00" overlapTraveltime="47.48" density="18.25" occupancy="9.05" waitingTime="0.00" speed="10.40" departed="0" arrived="0" entered="11" left="7" laneChangedFrom="0" laneChangedTo="0"/>
        <edge id="1si" sampledSeconds="770.41" traveltime="106.89" overlapTraveltime="110.16" density="54.14" occupancy="8.96" waitingTime="509.00" speed="2.20" departed="0" arrived="0" entered="6" left="6" laneChangedFrom="0" laneChangedTo="0"/>
        <edge id="2fi" sampledSeconds="568.58" traveltime="24.48" overlapTraveltime="24.94" density="38.13" occupancy="18.78" waitingTime="0.00" speed="10.16" departed="7" arrived="1" entered="17" left="19" laneChangedFrom="0" laneChangedTo="0"/>
        <edge id="2o" sampledSeconds="729.13" traveltime="46.95" overlapTraveltime="47.43" density="24.87" occupancy="12.30" waitingTime="0.00" speed="10.41" departed="0" arrived="0" entered="15" left="17" laneChangedFrom="0" laneChangedTo="0"/>
        <edge id="2si" sampledSeconds="575.32" traveltime="33.14" overlapTraveltime="34.55" density="40.43" occupancy="6.64" waitingTime="204.00" speed="7.01" departed="0" arrived="0" entered="19" left="7" laneChangedFrom="0" laneChangedTo="0"/>
        <edge id="3fi" sampledSeconds="527.52" traveltime="25.32" overlapTraveltime="25.79" density="35.38" occupancy="17.49" waitingTime="0.00" speed="9.83" departed="13" arrived="9" entered="7" left="11" laneChangedFrom="0" laneChangedTo="0"/>
        <edge id="3o" sampledSeconds="329.48" traveltime="47.04" overlapTraveltime="47.57" density="11.24" occupancy="5.54" waitingTime="0.00" speed="10.38" departed="0" arrived="0" entered="11" left="6" laneChangedFrom="0" laneChangedTo="0"/>
        <edge id="3si" sampledSeconds="641.80" traveltime="59.38" overlapTraveltime="59.68" density="45.10" occupancy="7.43" waitingTime="368.00" speed="4.06" departed="0" arrived="0" entered="12" left="17" laneChangedFrom="0" laneChangedTo="0"/>
        <edge id="4fi" sampledSeconds="354.02" traveltime="23.91" overlapTraveltime="24.37" density="23.74" occupancy="11.66" waitingTime="0.00" speed="10.40" departed="0" arrived="0" entered="13" left="14" laneChangedFrom="0" laneChangedTo="0"/>
        <edge id="4o" sampledSeconds="730.32" traveltime="47.08" overlapTraveltime="47.56" density="24.91" occupancy="12.33" waitingTime="0.00" speed="10.38" departed="0" arrived="0" entered="15" left="13" laneChangedFrom="0" laneChangedTo="0"/>
        <edge id="4si" sampledSeconds="763.99" traveltime="50.82" overlapTraveltime="52.67" density="53.69" occupancy="8.83" waitingTime="385.00" speed="4.60" departed="0" arrived="0" entered="14" left="19" laneChangedFrom="0" laneChangedTo="0"/>
    </interval>
    <interval begin="480.00" end="540.00" id="dump_60">
        <edge id="1fi" sampledSeconds="442.25" traveltime="24.52" overlapTraveltime="24.98" density="29.66" occupancy="14.60" waitingTime="0.00" speed="10.15" departed="6" arrived="0" entered="9" left="20" laneChangedFrom="0" laneChangedTo="0"/>
        <edge id="1o" sampledSeconds="457.71" traveltime="47.09" overlapTraveltime="47.57" density="15.61" occupancy="7.73" waitingTime="0.00" speed="10.38" departed="0" arrived="0" entered="9" left="9" laneChangedFrom="0" laneChangedTo="0"/>
        <edge id="1si" sampledSeconds="1117.05" traveltime="66.37" overlapTraveltime="68.69" density="78.51" occupancy="12.96" waitingTime="532.00" speed="3.53" departed="0" arrived="0" entered="20" left="14" laneChangedFrom="0" laneChangedTo="0"/>
        <edge id="2fi" sampledSeconds="503.57" traveltime="24.44" overlapTraveltime="24.91" density="33.77" occupancy="16.64" waitingTime="0.00" speed="10.18" departed="5" arrived="9" entered="15" left="13" laneChangedFrom="0" laneChangedTo="0"/>
        <edge id="2o" sampledSeconds="790.37" traveltime="47.08" overlapTraveltime="47.59" density="26.96" occupancy="13.36" waitingTime="0.00" speed="10.37" departed="0" arrived="0" entered="13" left="15" laneChangedFrom="0" laneChangedTo="0"/>
        <edge id="2si" sampledSeconds="750.28" traveltime="56.34" overlapTraveltime="58.85" density="52.73" occupancy="8.65" waitingTime="370.00" speed="4.11" departed="0" arrived="0" entered="13" left="21" laneChangedFrom="0" laneChangedTo="0"/>
        <edge id="3fi" sampledSeconds="512.64" traveltime="25.00" overlapTraveltime="25.48" density="34.38" occupancy="16.96" waitingTime="0.00" speed="9.95" departed="11" arrived="6" entered="11" left="13" laneChangedFrom="0" laneChangedTo="0"/>
        <edge id="3o" sampledSeconds="323.29" traveltime="47.02" overlapTraveltime="47.53" density="11.03" occupancy="5.44" waitingTime="0.00" speed="10.39" departed="0" arrived="0" entered="5" left="11" laneChangedFrom="0" laneChangedTo="0"/>
        <edge id="3si" sampledSeconds="764.06" traveltime="51.79" overlapTraveltime="52.83" density="53.70" occupancy="8.91" waitingTime="449.00" speed="4.58" departed="0" arrived="0" entered="13" left="1" laneChangedFrom="0" laneChangedTo="0"/>
        <edge id="4fi" sampledSeconds="389.85" traveltime="23.91" overlapTraveltime="24.39" density="26.15" occupancy="12.80" waitingTime="0.00" speed="10.39" departed="0" arrived="0" entered="14" left="20" laneChangedFrom="0" laneChangedTo="0"/>
        <edge id="4o" sampledSeconds="673.64" traveltime="46.95" overlapTraveltime="47.44" density="22.98" occupancy="11.37" waitingTime="0.00" speed="10.41" departed="0" arrived="0" entered="14" left="14" laneChangedFrom="0" laneChangedTo="0"/>
        <edge id="4si" sampledSeconds="723.69" traveltime="46.42" overlapTraveltime="47.67" density="50.86" occupancy="8.40" waitingTime="371.00" speed="5.08" departed="0" arrived="0" entered="20" left="2" laneChangedFrom="0" laneChangedTo="0"/>
    </interval>
    <interval begin="540.00" end="600.00" id="dump_60">
        <edge id="1fi" sampledSeconds="397.02" traveltime="24.54" overlapTraveltime="25.00" density="26.63" occupancy="13.07" waitingTime="0.00" speed="10.14" departed="5" arrived="0" entered="14" left="16" laneChangedFrom="0" laneChangedTo="0"/>
        <edge id="1o" sampledSeconds="739.18" traveltime="47.25" overlapTraveltime="47.75" density="25.21" occupancy="12.46" waitingTime="0.00" speed="10.34" departed="0" arrived="0" entered="19" left="15" laneChangedFrom="0" laneChangedTo="0"/>
        <edge id="1si" sampledSeconds="1541.53" traveltime="100.66" overlapTraveltime="102.07" density="108.34" occupancy="17.96" waitingTime="1006.00" speed="2.37" departed="0" arrived="0" entered="16" left="15" laneChangedFrom="0" laneChangedTo="0"/>
        <edge id="2fi" sampledSeconds="536.28" traveltime="24.47" overlapTraveltime="24.94" density="35.97" occupancy="17.69" waitingTime="0.00" speed="10.16" departed="6" arrived="8" entered="15" left="15" laneChangedFrom="0" laneChangedTo="0"/>
        <edge id="2o" sampledSeconds="750.21" traveltime="47.03" overlapTraveltime="47.53" density="25.59" occupancy="12.64" waitingTime="0.00" speed="10.39" departed="0" arrived="0" entered="20" left="15" laneChangedFrom="0" laneChangedTo="0"/>
        <edge id="2si" sampledSeconds="1097.54" traveltime="62.39" overlapTraveltime="63.83" density="77.13" occupancy="12.75" waitingTime="618.00" speed="3.79" departed="0" arrived="0" entered="15" left="15" laneChangedFrom="0" laneChangedTo="0"/>
        <edge id="3fi" sampledSeconds="470.57" traveltime="25.25" overlapTraveltime="25.71" density="31.56" occupancy="15.58" waitingTime="0.00" speed="9.86" departed="11" arrived="2" entered="7" left="17" laneChangedFrom="0" laneChangedTo="0"/>
        <edge id="3o" sampledSeconds="539.45" traveltime="46.85" overlapTraveltime="47.34" density="18.40" occupancy="9.11" waitingTime="0.00" speed="10.43" departed="0" arrived="0" entered="14" left="8" laneChangedFrom="0" laneChangedTo="0"/>
        <edge id="3si" sampledSeconds="583.57" traveltime="36.54" overlapTraveltime="38.55" density="41.01" occupancy="6.69" waitingTime="202.00" speed="6.28" departed="0" arrived="0" entered="16" left="21" laneChangedFrom="0" laneChangedTo="0"/>
        <edge id="4fi" sampledSeconds="336.45" traveltime="23.74" overlapTraveltime="24.21" density="22.57" occupancy="11.06" waitingTime="0.00" speed="10.47" departed="0" arrived="0" entered="17" left="11" laneChangedFrom="0" laneChangedTo="0"/>
        <edge id="4o" sampledSeconds="688.59" traveltime="46.99" overlapTraveltime="47.47" density="23.49" occupancy="11.61" waitingTime="0.00" speed="10.40" departed="0" arrived="0" entered="14" left="18" laneChangedFrom="0" laneChangedTo="0"/>
        <edge id="4si" sampledSeconds="604.25" traveltime="36.59" overlapTraveltime="38.66" density="42.47" occupancy="6.94" waitingTime="185.00" speed="6.26" departed="0" arrived="0" entered="11" left="23" laneChangedFrom="0" laneChangedTo="0"/>
    </interval>
    <interval begin="600.00" end="660.00" id="dump_60">
        <edge id="1fi" sampledSeconds="557.48" traveltime="24.50" overlapTraveltime="24.97" density="37.39" occupancy="18.41" waitingTime="0.00" speed="10.15" departed="7" arrived="4" entered="16" left="16" laneChangedFrom="0" laneChangedTo="0"/>
        <edge id="1o" sampledSeconds="646.24" traveltime="47.27" overlapTraveltime="47.78" density="22.04" occupancy="10.89" waitingTime="0.00" speed="10.33" departed="0" arrived="0" entered="13" left="15" laneChangedFrom="0" laneChangedTo="0"/>
        <edge id="1si" sampledSeconds="1576.77" traveltime="102.87" overlapTraveltime="105.36" density="110.81" occupancy="18.38" waitingTime="857.00" speed="2.30" departed="0" arrived="0" entered="16" left="5" laneChangedFrom="0" laneChangedTo="0"/>
        <edge id="2fi" sampledSeconds="594.53" traveltime="24.69" overlapTraveltime="25.16" density="39.87" occupancy="19.62" waitingTime="0.00" speed="10.08" departed="7" arrived="1" entered="17" left="20" laneChangedFrom="0" laneChangedTo="0"/>
        <edge id="2o" sampledSeconds="687.13" traveltime="47.02" overlapTraveltime="47.60" density="23.44" occupancy="11.58" waitingTime="0.00" speed="10.37" departed="0" arrived="0" entered="12" left="17" laneChangedFrom="0" laneChangedTo="0"/>
        <edge id="2si" sampledSeconds="753.02" traveltime="42.21" overlapTraveltime="43.66" density="52.92" occupancy="8.72" waitingTime="317.00" speed="5.55" departed="0" arrived="0" entered="20" left="9" laneChangedFrom="0" laneChangedTo="0"/>