<?xml version="1.0" encoding="UTF-8"?>

<!-- generated on Mon Nov 12 14:33:16 2018 by Eclipse SUMO Version v1_0_1+0617-70ae16b
This data file and the accompanying materials
are made available under the terms of the Eclipse Public License v2.0
which accompanies this distribution, and is available at
http://www.eclipse.org/legal/epl-v20.html
SPDX-License-Identifier: EPL-2.0
<configuration xmlns:xsi="http://www.w3.org/2001/XMLSchema-instance" xsi:noNamespaceSchemaLocation="http://sumo.dlr.de/xsd/sumoConfiguration.xsd">

    <input>
        <net-file value="net.net.xml"/>
        <route-files value="input_routes.rou.xml"/>
        <additional-files value="input_additional.add.xml"/>
    </input>

    <output>
        <write-license value="true"/>
    </output>

    <time>
        <begin value="0"/>
        <end value="1000"/>
    </time>

    <processing>
        <default.speeddev value="0"/>
    </processing>

    <report>
        <xml-validation value="never"/>
        <duration-log.disable value="true"/>
        <no-step-log value="true"/>
    </report>

</configuration>
-->

<meandata xmlns:xsi="http://www.w3.org/2001/XMLSchema-instance" xsi:noNamespaceSchemaLocation="http://sumo.dlr.de/xsd/meandata_file.xsd">
    <interval begin="0.00" end="900.00" id="dump_900">
        <edge id="1fi" sampledSeconds="5049.63" traveltime="24.75" overlapTraveltime="25.22" density="22.58" occupancy="11.12" waitingTime="0.00" speed="10.05" departed="79" arrived="14" entered="129" left="183" laneChangedFrom="0" laneChangedTo="0"/>
        <edge id="1o" sampledSeconds="6408.06" traveltime="47.11" overlapTraveltime="47.61" density="14.57" occupancy="7.21" waitingTime="0.00" speed="10.37" departed="0" arrived="0" entered="138" left="129" laneChangedFrom="0" laneChangedTo="0"/>
        <edge id="1si" sampledSeconds="14922.53" traveltime="88.00" overlapTraveltime="89.93" density="69.92" occupancy="11.57" waitingTime="8212.00" speed="2.69" departed="0" arrived="0" entered="183" left="150" laneChangedFrom="0" laneChangedTo="0"/>
        <edge id="2fi" sampledSeconds="5819.22" traveltime="24.66" overlapTraveltime="25.13" density="26.02" occupancy="12.81" waitingTime="0.00" speed="10.09" departed="80" arrived="56" entered="158" left="173" laneChangedFrom="0" laneChangedTo="0"/>
        <edge id="2o" sampledSeconds="7786.44" traveltime="47.09" overlapTraveltime="47.61" density="17.71" occupancy="8.76" waitingTime="0.00" speed="10.37" departed="0" arrived="0" entered="167" left="158" laneChangedFrom="0" laneChangedTo="0"/>
        <edge id="2si" sampledSeconds="8583.27" traveltime="49.21" overlapTraveltime="50.75" density="40.21" occupancy="6.62" waitingTime="4230.00" speed="4.77" departed="0" arrived="0" entered="173" left="165" laneChangedFrom="0" laneChangedTo="0"/>
        <edge id="3fi" sampledSeconds="6312.08" traveltime="25.20" overlapTraveltime="25.67" density="28.22" occupancy="13.94" waitingTime="0.00" speed="9.87" departed="146" arrived="80" entered="108" left="165" laneChangedFrom="0" laneChangedTo="0"/>
        <edge id="3o" sampledSeconds="5478.70" traveltime="47.02" overlapTraveltime="47.54" density="12.46" occupancy="6.16" waitingTime="0.00" speed="10.38" departed="0" arrived="0" entered="122" left="108" laneChangedFrom="0" laneChangedTo="0"/>
        <edge id="3si" sampledSeconds="7677.66" traveltime="45.74" overlapTraveltime="46.96" density="35.97" occupancy="5.92" waitingTime="3741.00" speed="5.16" departed="0" arrived="0" entered="165" left="149" laneChangedFrom="0" laneChangedTo="0"/>
        <edge id="4fi" sampledSeconds="3864.76" traveltime="23.83" overlapTraveltime="24.29" density="17.28" occupancy="8.47" waitingTime="0.00" speed="10.43" departed="0" arrived="0" entered="160" left="158" laneChangedFrom="0" laneChangedTo="0"/>
        <edge id="4o" sampledSeconds="7921.71" traveltime="47.05" overlapTraveltime="47.53" density="18.01" occupancy="8.91" waitingTime="0.00" speed="10.39" departed="0" arrived="0" entered="174" left="160" laneChangedFrom="0" laneChangedTo="0"/>
        <edge id="4si" sampledSeconds="6762.71" traveltime="42.31" overlapTraveltime="44.04" density="31.69" occupancy="5.21" waitingTime="2978.00" speed="5.50" departed="0" arrived="0" entered="158" left="137" laneChangedFrom="0" laneChangedTo="0"/>
    </interval>
    <interval begin="900.00" end="1000.00" id="dump_900">
        <edge id="1fi" sampledSeconds="1144.62" traveltime="32.10" overlapTraveltime="33.56" density="46.06" occupancy="22.61" waitingTime="121.00" speed="7.55" departed="10" arrived="7" entered="26" left="20" laneChangedFrom="0" laneChangedTo="0"/>
        <edge id="1o" sampledSeconds="1211.63" traveltime="47.08" overlapTraveltime="47.59" density="24.80" occupancy="12.26" waitingTime="0.00" speed="10.37" departed="0" arrived="0" entered="27" left="26" laneChangedFrom="0" laneChangedTo="0"/>
        <edge id="1si" sampledSeconds="3468.14" traveltime="152.42" overlapTraveltime="153.82" density="146.24" occupancy="24.20" waitingTime="1717.00" speed="1.57" departed="0" arrived="0" entered="20" left="24" laneChangedFrom="0" laneChangedTo="0"/>
        <edge id="2fi" sampledSeconds="821.14" traveltime="24.49" overlapTraveltime="24.96" density="33.04" occupancy="16.26" waitingTime="0.00" speed="10.16" departed="10" arrived="9" entered="24" left="24" laneChangedFrom="0" laneChangedTo="0"/>
        <edge id="2o" sampledSeconds="1156.64" traveltime="46.88" overlapTraveltime="47.39" density="23.67" occupancy="11.70" waitingTime="0.00" speed="10.42" departed="0" arrived="0" entered="26" left="24" laneChangedFrom="0" laneChangedTo="0"/>
        <edge id="2si" sampledSeconds="1181.92" traveltime="46.77" overlapTraveltime="48.33" density="49.84" occupancy="8.21" waitingTime="546.00" speed="5.01" departed="0" arrived="0" entered="24" left="20" laneChangedFrom="0" laneChangedTo="0"/>
        <edge id="3fi" sampledSeconds="955.00" traveltime="24.88" overlapTraveltime="25.36" density="38.43" occupancy="18.96" waitingTime="0.00" speed="10.00" departed="16" arrived="16" entered="22" left="22" laneChangedFrom="0" laneChangedTo="0"/>
        <edge id="3o" sampledSeconds="1132.88" traveltime="46.89" overlapTraveltime="47.40" density="23.18" occupancy="11.47" waitingTime="0.00" speed="10.42" departed="0" arrived="0" entered="24" left="23" laneChangedFrom="0" laneChangedTo="0"/>
        <edge id="3si" sampledSeconds="1043.55" traveltime="46.60" overlapTraveltime="48.44" density="44.00" occupancy="7.21" waitingTime="461.00" speed="5.00" departed="0" arrived="0" entered="22" left="30" laneChangedFrom="0" laneChangedTo="0"/>
        <edge id="4fi" sampledSeconds="536.23" traveltime="23.78" overlapTraveltime="24.24" density="21.58" occupancy="10.58" waitingTime="0.00" speed="10.46" departed="0" arrived="0" entered="23" left="22" laneChangedFrom="0" laneChangedTo="0"/>
        <edge id="4o" sampledSeconds="1095.40" traveltime="47.10" overlapTraveltime="47.59" density="22.42" occupancy="11.09" waitingTime="0.00" speed="10.37" departed="0" arrived="0" entered="22" left="24" laneChangedFrom="0" laneChangedTo="0"/>
        <edge id="4si" sampledSeconds="1277.87" traveltime="50.80" overlapTraveltime="52.57" density="53.88" occupancy="8.86" waitingTime="591.00" speed="4.61" departed="0" arrived="0" entered="22" left="31" laneChangedFrom="0" laneChangedTo="0"/>
    </interval>
</meandata>
