<?xml version="1.0" encoding="UTF-8"?>

<!-- generated on Mon Nov 12 14:33:16 2018 by Eclipse SUMO Version v1_0_1+0617-70ae16b
This data file and the accompanying materials
are made available under the terms of the Eclipse Public License v2.0
which accompanies this distribution, and is available at
http://www.eclipse.org/legal/epl-v20.html
SPDX-License-Identifier: EPL-2.0
<configuration xmlns:xsi="http://www.w3.org/2001/XMLSchema-instance" xsi:noNamespaceSchemaLocation="http://sumo.dlr.de/xsd/sumoConfiguration.xsd">

    <input>
        <net-file value="net.net.xml"/>
        <route-files value="input_routes.rou.xml"/>
        <additional-files value="input_additional.add.xml"/>
    </input>

    <output>
        <write-license value="true"/>
    </output>

    <time>
        <begin value="0"/>
        <end value="1000"/>
    </time>

    <processing>
        <default.speeddev value="0"/>
    </processing>

    <report>
        <xml-validation value="never"/>
        <duration-log.disable value="true"/>
        <no-step-log value="true"/>
    </report>

</configuration>
-->

<meandata xmlns:xsi="http://www.w3.org/2001/XMLSchema-instance" xsi:noNamespaceSchemaLocation="http://sumo.dlr.de/xsd/meandata_file.xsd">
    <interval begin="0.00" end="300.00" id="dump_300">
        <edge id="1fi">
            <lane id="1fi_0" sampledSeconds="678.13" traveltime="25.59" overlapTraveltime="26.06" density="9.10" occupancy="4.50" waitingTime="0.00" speed="9.73" departed="20" arrived="0" entered="11" left="21" laneChangedFrom="0" laneChangedTo="0"/>
        </edge>
        <edge id="1o">
            <lane id="1o_0" sampledSeconds="564.03" traveltime="46.84" overlapTraveltime="47.33" density="3.85" occupancy="1.90" waitingTime="0.00" speed="10.43" departed="0" arrived="0" entered="12" left="11" laneChangedFrom="0" laneChangedTo="0"/>
        </edge>
        <edge id="1si">
            <lane id="1si_0" sampledSeconds="0.00" departed="0" arrived="0" entered="0" left="0" laneChangedFrom="0" laneChangedTo="0"/>
            <lane id="1si_1" sampledSeconds="55.14" traveltime="17.96" overlapTraveltime="18.38" density="0.77" occupancy="0.38" waitingTime="0.00" speed="13.18" departed="0" arrived="0" entered="3" left="3" laneChangedFrom="0" laneChangedTo="0"/>
            <lane id="1si_2" sampledSeconds="740.92" traveltime="43.32" overlapTraveltime="45.55" density="10.41" occupancy="5.13" waitingTime="291.00" speed="5.32" departed="0" arrived="0" entered="18" left="10" laneChangedFrom="0" laneChangedTo="0"/>
        </edge>
        <edge id="2fi">
            <lane id="2fi_0" sampledSeconds="684.57" traveltime="25.54" overlapTraveltime="26.00" density="9.18" occupancy="4.54" waitingTime="0.00" speed="9.75" departed="20" arrived="0" entered="9" left="25" laneChangedFrom="0" laneChangedTo="0"/>
        </edge>
        <edge id="2o">
            <lane id="2o_0" sampledSeconds="635.16" traveltime="47.06" overlapTraveltime="47.59" density="4.33" occupancy="2.14" waitingTime="0.00" speed="10.37" departed="0" arrived="0" entered="20" left="9" laneChangedFrom="0" laneChangedTo="0"/>
        </edge>
        <edge id="2si">
            <lane id="2si_0" sampledSeconds="257.12" traveltime="40.77" overlapTraveltime="41.63" density="3.61" occupancy="1.80" waitingTime="119.00" speed="5.82" departed="0" arrived="0" entered="7" left="0" laneChangedFrom="0" laneChangedTo="0"/>
            <lane id="2si_1" sampledSeconds="570.17" traveltime="33.73" overlapTraveltime="34.36" density="8.01" occupancy="3.96" waitingTime="212.00" speed="7.05" departed="0" arrived="0" entered="18" left="12" laneChangedFrom="0" laneChangedTo="0"/>
            <lane id="2si_2" sampledSeconds="0.00" departed="0" arrived="0" entered="0" left="0" laneChangedFrom="0" laneChangedTo="0"/>
        </edge>
        <edge id="3fi">
            <lane id="3fi_0" sampledSeconds="985.48" traveltime="26.15" overlapTraveltime="26.63" density="13.22" occupancy="6.55" waitingTime="0.00" speed="9.52" departed="40" arrived="0" entered="0" left="36" laneChangedFrom="0" laneChangedTo="0"/>
        </edge>
        <edge id="3o">
            <lane id="3o_0" sampledSeconds="106.91" traveltime="46.81" overlapTraveltime="47.29" density="0.73" occupancy="0.36" waitingTime="0.00" speed="10.44" departed="0" arrived="0" entered="6" left="0" laneChangedFrom="0" laneChangedTo="0"/>
        </edge>
        <edge id="3si">
            <lane id="3si_0" sampledSeconds="653.44" traveltime="38.02" overlapTraveltime="38.70" density="9.18" occupancy="4.53" waitingTime="273.00" speed="6.26" departed="0" arrived="0" entered="18" left="16" laneChangedFrom="0" laneChangedTo="0"/>
            <lane id="3si_1" sampledSeconds="607.93" traveltime="36.09" overlapTraveltime="36.73" density="8.54" occupancy="4.21" waitingTime="236.00" speed="6.59" departed="0" arrived="0" entered="18" left="16" laneChangedFrom="0" laneChangedTo="0"/>
            <lane id="3si_2" sampledSeconds="0.00" departed="0" arrived="0" entered="0" left="0" laneChangedFrom="0" laneChangedTo="0"/>
        </edge>
        <edge id="4fi">
            <lane id="4fi_0" sampledSeconds="273.80" traveltime="23.71" overlapTraveltime="24.17" density="3.67" occupancy="1.80" waitingTime="0.00" speed="10.49" departed="0" arrived="0" entered="13" left="11" laneChangedFrom="0" laneChangedTo="0"/>
        </edge>
        <edge id="4o">
            <lane id="4o_0" sampledSeconds="905.47" traveltime="46.96" overlapTraveltime="47.44" density="6.18" occupancy="3.06" waitingTime="0.00" speed="10.41" departed="0" arrived="0" entered="25" left="13" laneChangedFrom="0" laneChangedTo="0"/>
        </edge>
        <edge id="4si">
            <lane id="4si_0" sampledSeconds="0.00" departed="0" arrived="0" entered="0" left="0" laneChangedFrom="0" laneChangedTo="0"/>
            <lane id="4si_1" sampledSeconds="129.38" traveltime="18.06" overlapTraveltime="18.48" density="1.82" occupancy="0.89" waitingTime="0.00" speed="13.10" departed="0" arrived="0" entered="7" left="7" laneChangedFrom="0" laneChangedTo="0"/>
            <lane id="4si_2" sampledSeconds="228.06" traveltime="51.58" overlapTraveltime="58.03" density="3.21" occupancy="1.58" waitingTime="118.00" speed="4.17" departed="0" arrived="0" entered="4" left="3" laneChangedFrom="0" laneChangedTo="0"/>
        </edge>
    </interval>
    <interval begin="300.00" end="600.00" id="dump_300">
        <edge id="1fi">
            <lane id="1fi_0" sampledSeconds="1735.38" traveltime="24.75" overlapTraveltime="25.21" density="23.28" occupancy="11.46" waitingTime="0.00" speed="10.05" departed="29" arrived="0" entered="40" left="72" laneChangedFrom="0" laneChangedTo="0"/>
        </edge>
        <edge id="1o">
            <lane id="1o_0" sampledSeconds="2192.66" traveltime="47.10" overlapTraveltime="47.59" density="14.96" occupancy="7.40" waitingTime="0.00" speed="10.37" departed="0" arrived="0" entered="53" left="41" laneChangedFrom="0" laneChangedTo="0"/>
        </edge>
        <edge id="1si">
            <lane id="1si_0" sampledSeconds="435.49" traveltime="61.55" overlapTraveltime="62.22" density="6.12" occupancy="3.03" waitingTime="256.00" speed="3.89" departed="0" arrived="0" entered="7" left="7" laneChangedFrom="0" laneChangedTo="0"/>
            <lane id="1si_1" sampledSeconds="625.41" traveltime="18.11" overlapTraveltime="18.54" density="8.79" occupancy="4.29" waitingTime="0.00" speed="13.06" departed="0" arrived="0" entered="35" left="33" laneChangedFrom="0" laneChangedTo="0"/>
            <lane id="1si_2" sampledSeconds="3753.04" traveltime="146.38" overlapTraveltime="151.33" density="52.75" occupancy="26.22" waitingTime="2389.00" speed="1.60" departed="0" arrived="0" entered="30" left="19" laneChangedFrom="0" laneChangedTo="0"/>
        </edge>
        <edge id="2fi">
            <lane id="2fi_0" sampledSeconds="2527.77" traveltime="24.51" overlapTraveltime="24.98" density="33.91" occupancy="16.69" waitingTime="0.00" speed="10.15" departed="29" arrived="29" entered="75" left="72" laneChangedFrom="0" laneChangedTo="0"/>
        </edge>
        <edge id="2o">
            <lane id="2o_0" sampledSeconds="3688.28" traveltime="47.07" overlapTraveltime="47.57" density="25.16" occupancy="12.45" waitingTime="0.00" speed="10.38" departed="0" arrived="0" entered="79" left="75" laneChangedFrom="0" laneChangedTo="0"/>
        </edge>
        <edge id="2si">
            <lane id="2si_0" sampledSeconds="1748.38" traveltime="65.24" overlapTraveltime="65.78" density="24.57" occupancy="12.18" waitingTime="1050.00" speed="3.68" departed="0" arrived="0" entered="26" left="31" laneChangedFrom="0" laneChangedTo="0"/>
            <lane id="2si_1" sampledSeconds="1095.35" traveltime="36.16" overlapTraveltime="36.80" density="15.40" occupancy="7.58" waitingTime="408.00" speed="6.58" departed="0" arrived="0" entered="30" left="33" laneChangedFrom="0" laneChangedTo="0"/>
            <lane id="2si_2" sampledSeconds="932.46" traveltime="56.25" overlapTraveltime="61.30" density="13.11" occupancy="6.46" waitingTime="451.00" speed="3.95" departed="0" arrived="0" entered="16" left="10" laneChangedFrom="0" laneChangedTo="0"/>
        </edge>
        <edge id="3fi">
            <lane id="3fi_0" sampledSeconds="2312.31" traveltime="25.35" overlapTraveltime="25.82" density="31.02" occupancy="15.33" waitingTime="0.00" speed="9.82" departed="58" arrived="24" entered="35" left="65" laneChangedFrom="0" laneChangedTo="0"/>
        </edge>
        <edge id="3o">
            <lane id="3o_0" sampledSeconds="1805.00" traveltime="47.01" overlapTraveltime="47.54" density="12.31" occupancy="6.09" waitingTime="0.00" speed="10.38" departed="0" arrived="0" entered="40" left="36" laneChangedFrom="0" laneChangedTo="0"/>
        </edge>
        <edge id="3si">
            <lane id="3si_0" sampledSeconds="1418.89" traveltime="47.09" overlapTraveltime="47.78" density="19.94" occupancy="9.87" waitingTime="719.00" speed="5.07" departed="0" arrived="0" entered="30" left="26" laneChangedFrom="0" laneChangedTo="0"/>
            <lane id="3si_1" sampledSeconds="1347.98" traveltime="45.07" overlapTraveltime="45.76" density="18.95" occupancy="9.37" waitingTime="674.00" speed="5.29" departed="0" arrived="0" entered="29" left="25" laneChangedFrom="0" laneChangedTo="0"/>
            <lane id="3si_2" sampledSeconds="219.13" traveltime="42.20" overlapTraveltime="47.48" density="3.08" occupancy="1.51" waitingTime="92.00" speed="5.10" departed="0" arrived="0" entered="5" left="4" laneChangedFrom="0" laneChangedTo="0"/>
        </edge>
        <edge id="4fi">
            <lane id="4fi_0" sampledSeconds="1765.63" traveltime="23.85" overlapTraveltime="24.32" density="23.68" occupancy="11.61" waitingTime="0.00" speed="10.42" departed="0" arrived="0" entered="75" left="69" laneChangedFrom="0" laneChangedTo="0"/>
        </edge>
        <edge id="4o">
            <lane id="4o_0" sampledSeconds="3482.49" traveltime="47.06" overlapTraveltime="47.54" density="23.76" occupancy="11.75" waitingTime="0.00" speed="10.38" departed="0" arrived="0" entered="73" left="76" laneChangedFrom="0" laneChangedTo="0"/>
        </edge>
        <edge id="4si">
            <lane id="4si_0" sampledSeconds="1179.34" traveltime="50.65" overlapTraveltime="51.44" density="16.58" occupancy="8.22" waitingTime="605.00" speed="4.71" departed="0" arrived="0" entered="24" left="16" laneChangedFrom="0" laneChangedTo="0"/>
            <lane id="4si_1" sampledSeconds="508.78" traveltime="19.16" overlapTraveltime="19.59" density="7.15" occupancy="3.50" waitingTime="24.00" speed="12.36" departed="0" arrived="0" entered="26" left="25" laneChangedFrom="0" laneChangedTo="0"/>
            <lane id="4si_2" sampledSeconds="1117.22" traveltime="54.88" overlapTraveltime="59.66" density="15.70" occupancy="7.72" waitingTime="498.00" speed="4.06" departed="0" arrived="0" entered="19" left="19" laneChangedFrom="0" laneChangedTo="0"/>
        </edge>
    </interval>
    <interval begin="600.00" end="900.00" id="dump_300">
        <edge id="1fi">
            <lane id="1fi_0" sampledSeconds="2636.12" traveltime="24.54" overlapTraveltime="25.01" density="35.36" occupancy="17.39" waitingTime="0.00" speed="10.14" departed="30" arrived="14" entered="78" left="90" laneChangedFrom="0" laneChangedTo="0"/>
        </edge>
        <edge id="1o">
            <lane id="1o_0" sampledSeconds="3651.37" traveltime="47.16" overlapTraveltime="47.66" density="24.91" occupancy="12.32" waitingTime="0.00" speed="10.36" departed="0" arrived="0" entered="73" left="77" laneChangedFrom="0" laneChangedTo="0"/>
        </edge>
        <edge id="1si">
            <lane id="1si_0" sampledSeconds="1699.62" traveltime="57.19" overlapTraveltime="57.92" density="23.89" occupancy="11.84" waitingTime="944.00" speed="4.18" departed="0" arrived="0" entered="34" left="26" laneChangedFrom="0" laneChangedTo="0"/>
            <lane id="1si_1" sampledSeconds="673.82" traveltime="22.53" overlapTraveltime="23.05" density="9.47" occupancy="4.64" waitingTime="118.00" speed="10.51" departed="0" arrived="0" entered="28" left="29" laneChangedFrom="0" laneChangedTo="0"/>
            <lane id="1si_2" sampledSeconds="6939.09" traveltime="303.48" overlapTraveltime="307.78" density="97.53" occupancy="48.60" waitingTime="4214.00" speed="0.79" departed="0" arrived="0" entered="28" left="23" laneChangedFrom="0" laneChangedTo="0"/>
        </edge>
        <edge id="2fi">
            <lane id="2fi_0" sampledSeconds="2606.88" traveltime="24.59" overlapTraveltime="25.06" density="34.97" occupancy="17.21" waitingTime="0.00" speed="10.12" departed="31" arrived="27" entered="74" left="76" laneChangedFrom="0" laneChangedTo="0"/>
        </edge>
        <edge id="2o">
            <lane id="2o_0" sampledSeconds="3463.00" traveltime="47.11" overlapTraveltime="47.65" density="23.62" occupancy="11.68" waitingTime="0.00" speed="10.36" departed="0" arrived="0" entered="68" left="74" laneChangedFrom="0" laneChangedTo="0"/>
        </edge>
        <edge id="2si">
            <lane id="2si_0" sampledSeconds="1569.57" traveltime="55.07" overlapTraveltime="55.75" density="22.06" occupancy="10.92" waitingTime="854.00" speed="4.34" departed="0" arrived="0" entered="30" left="27" laneChangedFrom="0" laneChangedTo="0"/>
            <lane id="2si_1" sampledSeconds="1105.88" traveltime="36.49" overlapTraveltime="37.12" density="15.54" occupancy="7.66" waitingTime="437.00" speed="6.52" departed="0" arrived="0" entered="29" left="30" laneChangedFrom="0" laneChangedTo="0"/>
            <lane id="2si_2" sampledSeconds="1304.35" traveltime="71.97" overlapTraveltime="77.42" density="18.33" occupancy="9.03" waitingTime="699.00" speed="3.13" departed="0" arrived="0" entered="17" left="22" laneChangedFrom="0" laneChangedTo="0"/>
        </edge>
        <edge id="3fi">
            <lane id="3fi_0" sampledSeconds="3014.29" traveltime="24.80" overlapTraveltime="25.27" density="40.43" occupancy="19.93" waitingTime="0.00" speed="10.03" departed="48" arrived="56" entered="73" left="64" laneChangedFrom="0" laneChangedTo="0"/>
        </edge>
        <edge id="3o">
            <lane id="3o_0" sampledSeconds="3566.78" traveltime="47.03" overlapTraveltime="47.54" density="24.33" occupancy="12.04" waitingTime="0.00" speed="10.38" departed="0" arrived="0" entered="76" left="72" laneChangedFrom="0" laneChangedTo="0"/>
        </edge>
        <edge id="3si">
            <lane id="3si_0" sampledSeconds="1133.31" traveltime="50.87" overlapTraveltime="51.55" density="15.93" occupancy="7.88" waitingTime="627.00" speed="4.70" departed="0" arrived="0" entered="21" left="22" laneChangedFrom="0" laneChangedTo="0"/>
            <lane id="3si_1" sampledSeconds="1214.45" traveltime="53.22" overlapTraveltime="53.89" density="17.07" occupancy="8.45" waitingTime="689.00" speed="4.49" departed="0" arrived="0" entered="22" left="23" laneChangedFrom="0" laneChangedTo="0"/>
            <lane id="3si_2" sampledSeconds="1082.53" traveltime="46.02" overlapTraveltime="49.72" density="15.22" occupancy="7.48" waitingTime="431.00" speed="4.87" departed="0" arrived="0" entered="22" left="17" laneChangedFrom="0" laneChangedTo="0"/>
        </edge>
        <edge id="4fi">
            <lane id="4fi_0" sampledSeconds="1825.33" traveltime="23.82" overlapTraveltime="24.29" density="24.48" occupancy="12.01" waitingTime="0.00" speed="10.44" departed="0" arrived="0" entered="72" left="78" laneChangedFrom="0" laneChangedTo="0"/>
        </edge>
        <edge id="4o">
            <lane id="4o_0" sampledSeconds="3533.74" traveltime="47.07" overlapTraveltime="47.55" density="24.11" occupancy="11.93" waitingTime="0.00" speed="10.38" departed="0" arrived="0" entered="76" left="71" laneChangedFrom="0" laneChangedTo="0"/>
        </edge>
        <edge id="4si">
            <lane id="4si_0" sampledSeconds="1904.17" traveltime="70.54" overlapTraveltime="71.23" density="26.76" occupancy="13.28" waitingTime="1188.00" speed="3.40" departed="0" arrived="0" entered="27" left="26" laneChangedFrom="0" laneChangedTo="0"/>
            <lane id="4si_1" sampledSeconds="528.69" traveltime="19.30" overlapTraveltime="19.78" density="7.43" occupancy="3.63" waitingTime="30.00" speed="12.24" departed="0" arrived="0" entered="29" left="25" laneChangedFrom="0" laneChangedTo="0"/>
            <lane id="4si_2" sampledSeconds="1167.06" traveltime="50.05" overlapTraveltime="54.23" density="16.40" occupancy="8.07" waitingTime="515.00" speed="4.47" departed="0" arrived="0" entered="22" left="16" laneChangedFrom="0" laneChangedTo="0"/>
        </edge>
    </interval>
    <interval begin="900.00" end="1000.00" id="dump_300">
        <edge id="1fi">
            <lane id="1fi_0" sampledSeconds="1144.62" traveltime="32.10" overlapTraveltime="33.56" density="46.06" occupancy="22.61" waitingTime="121.00" speed="7.55" departed="10" arrived="7" entered="26" left="20" laneChangedFrom="0" laneChangedTo="0"/>
        </edge>
        <edge id="1o">
            <lane id="1o_0" sampledSeconds="1211.63" traveltime="47.08" overlapTraveltime="47.59" density="24.80" occupancy="12.26" waitingTime="0.00" speed="10.37" departed="0" arrived="0" entered="27" left="26" laneChangedFrom="0" laneChangedTo="0"/>
        </edge>
        <edge id="1si">
            <lane id="1si_0" sampledSeconds="500.11" traveltime="88.28" overlapTraveltime="88.19" density="21.09" occupancy="10.47" waitingTime="325.00" speed="2.75" departed="0" arrived="0" entered="2" left="9" laneChangedFrom="0" laneChangedTo="0"/>
            <lane id="1si_1" sampledSeconds="209.40" traveltime="23.53" overlapTraveltime="24.08" density="8.83" occupancy="4.32" waitingTime="45.00" speed="10.06" departed="0" arrived="0" entered="9" left="9" laneChangedFrom="0" laneChangedTo="0"/>
            <lane id="1si_2" sampledSeconds="2758.64" traveltime="332.30" overlapTraveltime="337.29" density="116.32" occupancy="57.82" waitingTime="1347.00" speed="0.72" departed="0" arrived="0" entered="9" left="6" laneChangedFrom="0" laneChangedTo="0"/>
        </edge>
        <edge id="2fi">
            <lane id="2fi_0" sampledSeconds="821.14" traveltime="24.49" overlapTraveltime="24.96" density="33.04" occupancy="16.26" waitingTime="0.00" speed="10.16" departed="10" arrived="9" entered="24" left="24" laneChangedFrom="0" laneChangedTo="0"/>
        </edge>
        <edge id="2o">
            <lane id="2o_0" sampledSeconds="1156.64" traveltime="46.88" overlapTraveltime="47.39" density="23.67" occupancy="11.70" waitingTime="0.00" speed="10.42" departed="0" arrived="0" entered="26" left="24" laneChangedFrom="0" laneChangedTo="0"/>
        </edge>
        <edge id="2si">
            <lane id="2si_0" sampledSeconds="419.62" traveltime="50.41" overlapTraveltime="51.22" density="17.69" occupancy="8.77" waitingTime="213.00" speed="4.73" departed="0" arrived="0" entered="8" left="6" laneChangedFrom="0" laneChangedTo="0"/>
            <lane id="2si_1" sampledSeconds="387.83" traveltime="39.20" overlapTraveltime="39.88" density="16.35" occupancy="8.08" waitingTime="165.00" speed="6.07" departed="0" arrived="0" entered="10" left="8" laneChangedFrom="0" laneChangedTo="0"/>
            <lane id="2si_2" sampledSeconds="374.47" traveltime="53.47" overlapTraveltime="57.30" density="15.79" occupancy="7.77" waitingTime="168.00" speed="4.23" departed="0" arrived="0" entered="6" left="6" laneChangedFrom="0" laneChangedTo="0"/>
        </edge>
        <edge id="3fi">
            <lane id="3fi_0" sampledSeconds="955.00" traveltime="24.88" overlapTraveltime="25.36" density="38.43" occupancy="18.96" waitingTime="0.00" speed="10.00" departed="16" arrived="16" entered="22" left="22" laneChangedFrom="0" laneChangedTo="0"/>
        </edge>
        <edge id="3o">
            <lane id="3o_0" sampledSeconds="1132.88" traveltime="46.89" overlapTraveltime="47.40" density="23.18" occupancy="11.47" waitingTime="0.00" speed="10.42" departed="0" arrived="0" entered="24" left="23" laneChangedFrom="0" laneChangedTo="0"/>
        </edge>
        <edge id="3si">
            <lane id="3si_0" sampledSeconds="376.53" traveltime="44.72" overlapTraveltime="45.44" density="15.88" occupancy="7.81" waitingTime="181.00" speed="5.33" departed="0" arrived="0" entered="9" left="11" laneChangedFrom="0" laneChangedTo="0"/>
            <lane id="3si_1" sampledSeconds="323.42" traveltime="40.20" overlapTraveltime="40.91" density="13.64" occupancy="6.70" waitingTime="131.00" speed="5.92" departed="0" arrived="0" entered="8" left="11" laneChangedFrom="0" laneChangedTo="0"/>
            <lane id="3si_2" sampledSeconds="343.59" traveltime="58.95" overlapTraveltime="64.24" density="14.49" occupancy="7.11" waitingTime="149.00" speed="3.77" departed="0" arrived="0" entered="5" left="8" laneChangedFrom="0" laneChangedTo="0"/>
        </edge>
        <edge id="4fi">
            <lane id="4fi_0" sampledSeconds="536.23" traveltime="23.78" overlapTraveltime="24.24" density="21.58" occupancy="10.58" waitingTime="0.00" speed="10.46" departed="0" arrived="0" entered="23" left="22" laneChangedFrom="0" laneChangedTo="0"/>
        </edge>
        <edge id="4o">
            <lane id="4o_0" sampledSeconds="1095.40" traveltime="47.10" overlapTraveltime="47.59" density="22.42" occupancy="11.09" waitingTime="0.00" speed="10.37" departed="0" arrived="0" entered="22" left="24" laneChangedFrom="0" laneChangedTo="0"/>
        </edge>
        <edge id="4si">
            <lane id="4si_0" sampledSeconds="525.07" traveltime="65.11" overlapTraveltime="65.42" density="22.14" occupancy="10.94" waitingTime="287.00" speed="3.70" departed="0" arrived="0" entered="7" left="13" laneChangedFrom="0" laneChangedTo="0"/>
            <lane id="4si_1" sampledSeconds="229.60" traveltime="24.17" overlapTraveltime="24.73" density="9.68" occupancy="4.75" waitingTime="53.00" speed="9.79" departed="0" arrived="0" entered="8" left="10" laneChangedFrom="0" laneChangedTo="0"/>
            <lane id="4si_2" sampledSeconds="523.19" traveltime="69.89" overlapTraveltime="74.80" density="22.06" occupancy="10.88" waitingTime="251.00" speed="3.24" departed="0" arrived="0" entered="7" left="8" laneChangedFrom="0" laneChangedTo="0"/>
        </edge>
    </interval>
</meandata>
