<?xml version="1.0" encoding="UTF-8"?>

<!-- generated on Mon Nov 12 14:33:16 2018 by Eclipse SUMO Version v1_0_1+0617-70ae16b
This data file and the accompanying materials
are made available under the terms of the Eclipse Public License v2.0
which accompanies this distribution, and is available at
http://www.eclipse.org/legal/epl-v20.html
SPDX-License-Identifier: EPL-2.0
<configuration xmlns:xsi="http://www.w3.org/2001/XMLSchema-instance" xsi:noNamespaceSchemaLocation="http://sumo.dlr.de/xsd/sumoConfiguration.xsd">

    <input>
        <net-file value="net.net.xml"/>
        <route-files value="input_routes.rou.xml"/>
        <additional-files value="input_additional.add.xml"/>
    </input>

    <output>
        <write-license value="true"/>
    </output>

    <time>
        <begin value="0"/>
        <end value="1000"/>
    </time>

    <processing>
        <default.speeddev value="0"/>
    </processing>

    <report>
        <xml-validation value="never"/>
        <duration-log.disable value="true"/>
        <no-step-log value="true"/>
    </report>

</configuration>
-->

<meandata xmlns:xsi="http://www.w3.org/2001/XMLSchema-instance" xsi:noNamespaceSchemaLocation="http://sumo.dlr.de/xsd/meandata_file.xsd">
    <interval begin="0.00" end="60.00" id="dump_60">
        <edge id="1fi">
            <lane id="1fi_0" sampledSeconds="0.00" departed="0" arrived="0" entered="0" left="0" laneChangedFrom="0" laneChangedTo="0"/>
        </edge>
        <edge id="1o">
            <lane id="1o_0" sampledSeconds="0.00" departed="0" arrived="0" entered="0" left="0" laneChangedFrom="0" laneChangedTo="0"/>
        </edge>
        <edge id="1si">
            <lane id="1si_0" sampledSeconds="0.00" departed="0" arrived="0" entered="0" left="0" laneChangedFrom="0" laneChangedTo="0"/>
            <lane id="1si_1" sampledSeconds="0.00" departed="0" arrived="0" entered="0" left="0" laneChangedFrom="0" laneChangedTo="0"/>
            <lane id="1si_2" sampledSeconds="0.00" departed="0" arrived="0" entered="0" left="0" laneChangedFrom="0" laneChangedTo="0"/>
        </edge>
        <edge id="2fi">
            <lane id="2fi_0" sampledSeconds="0.00" departed="0" arrived="0" entered="0" left="0" laneChangedFrom="0" laneChangedTo="0"/>
        </edge>
        <edge id="2o">
            <lane id="2o_0" sampledSeconds="0.00" departed="0" arrived="0" entered="0" left="0" laneChangedFrom="0" laneChangedTo="0"/>
        </edge>
        <edge id="2si">
            <lane id="2si_0" sampledSeconds="0.00" departed="0" arrived="0" entered="0" left="0" laneChangedFrom="0" laneChangedTo="0"/>
            <lane id="2si_1" sampledSeconds="0.00" departed="0" arrived="0" entered="0" left="0" laneChangedFrom="0" laneChangedTo="0"/>
            <lane id="2si_2" sampledSeconds="0.00" departed="0" arrived="0" entered="0" left="0" laneChangedFrom="0" laneChangedTo="0"/>
        </edge>
        <edge id="3fi">
            <lane id="3fi_0" sampledSeconds="0.00" departed="0" arrived="0" entered="0" left="0" laneChangedFrom="0" laneChangedTo="0"/>
        </edge>
        <edge id="3o">
            <lane id="3o_0" sampledSeconds="0.00" departed="0" arrived="0" entered="0" left="0" laneChangedFrom="0" laneChangedTo="0"/>
        </edge>
        <edge id="3si">
            <lane id="3si_0" sampledSeconds="0.00" departed="0" arrived="0" entered="0" left="0" laneChangedFrom="0" laneChangedTo="0"/>
            <lane id="3si_1" sampledSeconds="0.00" departed="0" arrived="0" entered="0" left="0" laneChangedFrom="0" laneChangedTo="0"/>
            <lane id="3si_2" sampledSeconds="0.00" departed="0" arrived="0" entered="0" left="0" laneChangedFrom="0" laneChangedTo="0"/>
        </edge>
        <edge id="4fi">
            <lane id="4fi_0" sampledSeconds="0.00" departed="0" arrived="0" entered="0" left="0" laneChangedFrom="0" laneChangedTo="0"/>
        </edge>
        <edge id="4o">
            <lane id="4o_0" sampledSeconds="0.00" departed="0" arrived="0" entered="0" left="0" laneChangedFrom="0" laneChangedTo="0"/>
        </edge>
        <edge id="4si">
            <lane id="4si_0" sampledSeconds="0.00" departed="0" arrived="0" entered="0" left="0" laneChangedFrom="0" laneChangedTo="0"/>
            <lane id="4si_1" sampledSeconds="0.00" departed="0" arrived="0" entered="0" left="0" laneChangedFrom="0" laneChangedTo="0"/>
            <lane id="4si_2" sampledSeconds="0.00" departed="0" arrived="0" entered="0" left="0" laneChangedFrom="0" laneChangedTo="0"/>
        </edge>
    </interval>
    <interval begin="60.00" end="120.00" id="dump_60">
        <edge id="1fi">
            <lane id="1fi_0" sampledSeconds="28.00" traveltime="28.65" overlapTraveltime="29.23" density="1.88" occupancy="0.94" waitingTime="0.00" speed="8.67" departed="2" arrived="0" entered="0" left="0" laneChangedFrom="0" laneChangedTo="0"/>
        </edge>
        <edge id="1o">
            <lane id="1o_0" sampledSeconds="0.00" departed="0" arrived="0" entered="0" left="0" laneChangedFrom="0" laneChangedTo="0"/>
        </edge>
        <edge id="1si">
            <lane id="1si_0" sampledSeconds="0.00" departed="0" arrived="0" entered="0" left="0" laneChangedFrom="0" laneChangedTo="0"/>
            <lane id="1si_1" sampledSeconds="0.00" departed="0" arrived="0" entered="0" left="0" laneChangedFrom="0" laneChangedTo="0"/>
            <lane id="1si_2" sampledSeconds="0.00" departed="0" arrived="0" entered="0" left="0" laneChangedFrom="0" laneChangedTo="0"/>
        </edge>
        <edge id="2fi">
            <lane id="2fi_0" sampledSeconds="28.00" traveltime="28.45" overlapTraveltime="29.02" density="1.88" occupancy="0.94" waitingTime="0.00" speed="8.74" departed="2" arrived="0" entered="0" left="0" laneChangedFrom="0" laneChangedTo="0"/>
        </edge>
        <edge id="2o">
            <lane id="2o_0" sampledSeconds="0.00" departed="0" arrived="0" entered="0" left="0" laneChangedFrom="0" laneChangedTo="0"/>
        </edge>
        <edge id="2si">
            <lane id="2si_0" sampledSeconds="0.00" departed="0" arrived="0" entered="0" left="0" laneChangedFrom="0" laneChangedTo="0"/>
            <lane id="2si_1" sampledSeconds="0.00" departed="0" arrived="0" entered="0" left="0" laneChangedFrom="0" laneChangedTo="0"/>
            <lane id="2si_2" sampledSeconds="0.00" departed="0" arrived="0" entered="0" left="0" laneChangedFrom="0" laneChangedTo="0"/>
        </edge>
        <edge id="3fi">
            <lane id="3fi_0" sampledSeconds="50.00" traveltime="28.72" overlapTraveltime="29.30" density="3.35" occupancy="1.68" waitingTime="0.00" speed="8.65" departed="4" arrived="0" entered="0" left="0" laneChangedFrom="0" laneChangedTo="0"/>
        </edge>
        <edge id="3o">
            <lane id="3o_0" sampledSeconds="0.00" departed="0" arrived="0" entered="0" left="0" laneChangedFrom="0" laneChangedTo="0"/>
        </edge>
        <edge id="3si">
            <lane id="3si_0" sampledSeconds="0.00" departed="0" arrived="0" entered="0" left="0" laneChangedFrom="0" laneChangedTo="0"/>
            <lane id="3si_1" sampledSeconds="0.00" departed="0" arrived="0" entered="0" left="0" laneChangedFrom="0" laneChangedTo="0"/>
            <lane id="3si_2" sampledSeconds="0.00" departed="0" arrived="0" entered="0" left="0" laneChangedFrom="0" laneChangedTo="0"/>
        </edge>
        <edge id="4fi">
            <lane id="4fi_0" sampledSeconds="0.00" departed="0" arrived="0" entered="0" left="0" laneChangedFrom="0" laneChangedTo="0"/>
        </edge>
        <edge id="4o">
            <lane id="4o_0" sampledSeconds="0.00" departed="0" arrived="0" entered="0" left="0" laneChangedFrom="0" laneChangedTo="0"/>
        </edge>
        <edge id="4si">
            <lane id="4si_0" sampledSeconds="0.00" departed="0" arrived="0" entered="0" left="0" laneChangedFrom="0" laneChangedTo="0"/>
            <lane id="4si_1" sampledSeconds="0.00" departed="0" arrived="0" entered="0" left="0" laneChangedFrom="0" laneChangedTo="0"/>
            <lane id="4si_2" sampledSeconds="0.00" departed="0" arrived="0" entered="0" left="0" laneChangedFrom="0" laneChangedTo="0"/>
        </edge>
    </interval>
    <interval begin="120.00" end="180.00" id="dump_60">
        <edge id="1fi">
            <lane id="1fi_0" sampledSeconds="157.00" traveltime="26.28" overlapTraveltime="26.73" density="10.53" occupancy="5.22" waitingTime="0.00" speed="9.48" departed="6" arrived="0" entered="0" left="6" laneChangedFrom="0" laneChangedTo="0"/>
        </edge>
        <edge id="1o">
            <lane id="1o_0" sampledSeconds="68.58" traveltime="46.65" overlapTraveltime="47.13" density="2.34" occupancy="1.16" waitingTime="0.00" speed="10.47" departed="0" arrived="0" entered="3" left="0" laneChangedFrom="0" laneChangedTo="0"/>
        </edge>
        <edge id="1si">
            <lane id="1si_0" sampledSeconds="0.00" departed="0" arrived="0" entered="0" left="0" laneChangedFrom="0" laneChangedTo="0"/>
            <lane id="1si_1" sampledSeconds="0.00" departed="0" arrived="0" entered="0" left="0" laneChangedFrom="0" laneChangedTo="0"/>
            <lane id="1si_2" sampledSeconds="91.29" traveltime="18.29" overlapTraveltime="18.94" density="6.42" occupancy="3.11" waitingTime="0.00" speed="12.78" departed="0" arrived="0" entered="6" left="4" laneChangedFrom="0" laneChangedTo="0"/>
        </edge>
        <edge id="2fi">
            <lane id="2fi_0" sampledSeconds="156.06" traveltime="25.93" overlapTraveltime="26.39" density="10.47" occupancy="5.19" waitingTime="0.00" speed="9.61" departed="6" arrived="0" entered="0" left="6" laneChangedFrom="0" laneChangedTo="0"/>
        </edge>
        <edge id="2o">
            <lane id="2o_0" sampledSeconds="0.00" departed="0" arrived="0" entered="0" left="0" laneChangedFrom="0" laneChangedTo="0"/>
        </edge>
        <edge id="2si">
            <lane id="2si_0" sampledSeconds="0.00" departed="0" arrived="0" entered="0" left="0" laneChangedFrom="0" laneChangedTo="0"/>
            <lane id="2si_1" sampledSeconds="94.82" traveltime="19.08" overlapTraveltime="19.50" density="6.66" occupancy="3.26" waitingTime="2.00" speed="12.42" departed="0" arrived="0" entered="6" left="3" laneChangedFrom="0" laneChangedTo="0"/>
            <lane id="2si_2" sampledSeconds="0.00" departed="0" arrived="0" entered="0" left="0" laneChangedFrom="0" laneChangedTo="0"/>
        </edge>
        <edge id="3fi">
            <lane id="3fi_0" sampledSeconds="311.69" traveltime="26.06" overlapTraveltime="26.53" density="20.90" occupancy="10.36" waitingTime="0.00" speed="9.55" departed="12" arrived="0" entered="0" left="12" laneChangedFrom="0" laneChangedTo="0"/>
        </edge>
        <edge id="3o">
            <lane id="3o_0" sampledSeconds="0.00" departed="0" arrived="0" entered="0" left="0" laneChangedFrom="0" laneChangedTo="0"/>
        </edge>
        <edge id="3si">
            <lane id="3si_0" sampledSeconds="169.19" traveltime="36.00" overlapTraveltime="36.76" density="11.89" occupancy="5.90" waitingTime="75.00" speed="6.59" departed="0" arrived="0" entered="6" left="0" laneChangedFrom="0" laneChangedTo="0"/>
            <lane id="3si_1" sampledSeconds="149.24" traveltime="34.38" overlapTraveltime="35.11" density="10.49" occupancy="5.20" waitingTime="63.00" speed="6.90" departed="0" arrived="0" entered="6" left="0" laneChangedFrom="0" laneChangedTo="0"/>
            <lane id="3si_2" sampledSeconds="0.00" departed="0" arrived="0" entered="0" left="0" laneChangedFrom="0" laneChangedTo="0"/>
        </edge>
        <edge id="4fi">
            <lane id="4fi_0" sampledSeconds="0.00" departed="0" arrived="0" entered="0" left="0" laneChangedFrom="0" laneChangedTo="0"/>
        </edge>
        <edge id="4o">
            <lane id="4o_0" sampledSeconds="68.34" traveltime="46.27" overlapTraveltime="46.74" density="2.33" occupancy="1.15" waitingTime="0.00" speed="10.56" departed="0" arrived="0" entered="4" left="0" laneChangedFrom="0" laneChangedTo="0"/>
        </edge>
        <edge id="4si">
            <lane id="4si_0" sampledSeconds="0.00" departed="0" arrived="0" entered="0" left="0" laneChangedFrom="0" laneChangedTo="0"/>
            <lane id="4si_1" sampledSeconds="0.00" departed="0" arrived="0" entered="0" left="0" laneChangedFrom="0" laneChangedTo="0"/>
            <lane id="4si_2" sampledSeconds="0.00" departed="0" arrived="0" entered="0" left="0" laneChangedFrom="0" laneChangedTo="0"/>
        </edge>
    </interval>
    <interval begin="180.00" end="240.00" id="dump_60">
        <edge id="1fi">
            <lane id="1fi_0" sampledSeconds="229.06" traveltime="25.27" overlapTraveltime="25.73" density="15.36" occupancy="7.59" waitingTime="0.00" speed="9.85" departed="6" arrived="0" entered="3" left="9" laneChangedFrom="0" laneChangedTo="0"/>
        </edge>
        <edge id="1o">
            <lane id="1o_0" sampledSeconds="105.86" traveltime="46.96" overlapTraveltime="47.50" density="3.61" occupancy="1.77" waitingTime="0.00" speed="10.39" departed="0" arrived="0" entered="6" left="3" laneChangedFrom="0" laneChangedTo="0"/>
        </edge>
        <edge id="1si">
            <lane id="1si_0" sampledSeconds="0.00" departed="0" arrived="0" entered="0" left="0" laneChangedFrom="0" laneChangedTo="0"/>
            <lane id="1si_1" sampledSeconds="30.64" traveltime="17.97" overlapTraveltime="18.36" density="2.15" occupancy="1.05" waitingTime="0.00" speed="13.19" departed="0" arrived="0" entered="3" left="1" laneChangedFrom="0" laneChangedTo="0"/>
            <lane id="1si_2" sampledSeconds="275.70" traveltime="45.63" overlapTraveltime="48.45" density="19.38" occupancy="9.60" waitingTime="127.00" speed="5.00" departed="0" arrived="0" entered="6" left="2" laneChangedFrom="0" laneChangedTo="0"/>
        </edge>
        <edge id="2fi">
            <lane id="2fi_0" sampledSeconds="171.97" traveltime="25.45" overlapTraveltime="25.92" density="11.53" occupancy="5.68" waitingTime="0.00" speed="9.78" departed="5" arrived="0" entered="5" left="6" laneChangedFrom="0" laneChangedTo="0"/>
        </edge>
        <edge id="2o">
            <lane id="2o_0" sampledSeconds="317.30" traveltime="47.08" overlapTraveltime="47.57" density="10.82" occupancy="5.35" waitingTime="0.00" speed="10.38" departed="0" arrived="0" entered="8" left="5" laneChangedFrom="0" laneChangedTo="0"/>
        </edge>
        <edge id="2si">
            <lane id="2si_0" sampledSeconds="0.00" departed="0" arrived="0" entered="0" left="0" laneChangedFrom="0" laneChangedTo="0"/>
            <lane id="2si_1" sampledSeconds="305.39" traveltime="50.03" overlapTraveltime="50.67" density="21.46" occupancy="10.60" waitingTime="156.00" speed="4.78" departed="0" arrived="0" entered="6" left="7" laneChangedFrom="0" laneChangedTo="0"/>
            <lane id="2si_2" sampledSeconds="0.00" departed="0" arrived="0" entered="0" left="0" laneChangedFrom="0" laneChangedTo="0"/>
        </edge>
        <edge id="3fi">
            <lane id="3fi_0" sampledSeconds="311.51" traveltime="26.04" overlapTraveltime="26.52" density="20.89" occupancy="10.36" waitingTime="0.00" speed="9.56" departed="12" arrived="0" entered="0" left="11" laneChangedFrom="0" laneChangedTo="0"/>
        </edge>
        <edge id="3o">
            <lane id="3o_0" sampledSeconds="0.00" departed="0" arrived="0" entered="0" left="0" laneChangedFrom="0" laneChangedTo="0"/>
        </edge>
        <edge id="3si">
            <lane id="3si_0" sampledSeconds="181.08" traveltime="28.98" overlapTraveltime="29.70" density="12.73" occupancy="6.23" waitingTime="47.00" speed="8.15" departed="0" arrived="0" entered="6" left="7" laneChangedFrom="0" laneChangedTo="0"/>
            <lane id="3si_1" sampledSeconds="169.28" traveltime="26.98" overlapTraveltime="27.66" density="11.90" occupancy="5.83" waitingTime="36.00" speed="8.75" departed="0" arrived="0" entered="5" left="7" laneChangedFrom="0" laneChangedTo="0"/>
            <lane id="3si_2" sampledSeconds="0.00" departed="0" arrived="0" entered="0" left="0" laneChangedFrom="0" laneChangedTo="0"/>
        </edge>
        <edge id="4fi">
            <lane id="4fi_0" sampledSeconds="108.60" traveltime="23.69" overlapTraveltime="24.15" density="7.28" occupancy="3.56" waitingTime="0.00" speed="10.50" departed="0" arrived="0" entered="8" left="3" laneChangedFrom="0" laneChangedTo="0"/>
        </edge>
        <edge id="4o">
            <lane id="4o_0" sampledSeconds="428.01" traveltime="46.99" overlapTraveltime="47.47" density="14.60" occupancy="7.24" waitingTime="0.00" speed="10.40" departed="0" arrived="0" entered="7" left="9" laneChangedFrom="0" laneChangedTo="0"/>
        </edge>
        <edge id="4si">
            <lane id="4si_0" sampledSeconds="0.00" departed="0" arrived="0" entered="0" left="0" laneChangedFrom="0" laneChangedTo="0"/>
            <lane id="4si_1" sampledSeconds="0.00" departed="0" arrived="0" entered="0" left="0" laneChangedFrom="0" laneChangedTo="0"/>
            <lane id="4si_2" sampledSeconds="31.58" traveltime="19.92" overlapTraveltime="20.34" density="2.22" occupancy="1.09" waitingTime="0.00" speed="11.91" departed="0" arrived="0" entered="3" left="0" laneChangedFrom="0" laneChangedTo="0"/>
        </edge>
    </interval>
    <interval begin="240.00" end="300.00" id="dump_60">
        <edge id="1fi">
            <lane id="1fi_0" sampledSeconds="264.06" traveltime="25.19" overlapTraveltime="25.67" density="17.71" occupancy="8.75" waitingTime="0.00" speed="9.88" departed="6" arrived="0" entered="8" left="6" laneChangedFrom="0" laneChangedTo="0"/>
        </edge>
        <edge id="1o">
            <lane id="1o_0" sampledSeconds="389.59" traveltime="46.84" overlapTraveltime="47.32" density="13.29" occupancy="6.60" waitingTime="0.00" speed="10.43" departed="0" arrived="0" entered="3" left="8" laneChangedFrom="0" laneChangedTo="0"/>
        </edge>
        <edge id="1si">
            <lane id="1si_0" sampledSeconds="0.00" departed="0" arrived="0" entered="0" left="0" laneChangedFrom="0" laneChangedTo="0"/>
            <lane id="1si_1" sampledSeconds="24.50" traveltime="17.96" overlapTraveltime="18.40" density="1.72" occupancy="0.85" waitingTime="0.00" speed="13.16" departed="0" arrived="0" entered="0" left="2" laneChangedFrom="0" laneChangedTo="0"/>
            <lane id="1si_2" sampledSeconds="373.93" traveltime="61.99" overlapTraveltime="64.98" density="26.28" occupancy="12.95" waitingTime="164.00" speed="3.73" departed="0" arrived="0" entered="6" left="4" laneChangedFrom="0" laneChangedTo="0"/>
        </edge>
        <edge id="2fi">
            <lane id="2fi_0" sampledSeconds="328.55" traveltime="25.17" overlapTraveltime="25.63" density="22.04" occupancy="10.88" waitingTime="0.00" speed="9.89" departed="7" arrived="0" entered="4" left="13" laneChangedFrom="0" laneChangedTo="0"/>
        </edge>
        <edge id="2o">
            <lane id="2o_0" sampledSeconds="317.86" traveltime="47.05" overlapTraveltime="47.60" density="10.84" occupancy="5.35" waitingTime="0.00" speed="10.37" departed="0" arrived="0" entered="12" left="4" laneChangedFrom="0" laneChangedTo="0"/>
        </edge>
        <edge id="2si">
            <lane id="2si_0" sampledSeconds="257.12" traveltime="40.77" overlapTraveltime="41.63" density="18.07" occupancy="8.98" waitingTime="119.00" speed="5.82" departed="0" arrived="0" entered="7" left="0" laneChangedFrom="0" laneChangedTo="0"/>
            <lane id="2si_1" sampledSeconds="169.96" traveltime="29.20" overlapTraveltime="29.78" density="11.94" occupancy="5.91" waitingTime="54.00" speed="8.13" departed="0" arrived="0" entered="6" left="2" laneChangedFrom="0" laneChangedTo="0"/>
            <lane id="2si_2" sampledSeconds="0.00" departed="0" arrived="0" entered="0" left="0" laneChangedFrom="0" laneChangedTo="0"/>
        </edge>
        <edge id="3fi">
            <lane id="3fi_0" sampledSeconds="312.28" traveltime="25.98" overlapTraveltime="26.44" density="20.94" occupancy="10.37" waitingTime="0.00" speed="9.59" departed="12" arrived="0" entered="0" left="13" laneChangedFrom="0" laneChangedTo="0"/>
        </edge>
        <edge id="3o">
            <lane id="3o_0" sampledSeconds="106.91" traveltime="46.81" overlapTraveltime="47.29" density="3.65" occupancy="1.80" waitingTime="0.00" speed="10.44" departed="0" arrived="0" entered="6" left="0" laneChangedFrom="0" laneChangedTo="0"/>
        </edge>
        <edge id="3si">
            <lane id="3si_0" sampledSeconds="303.17" traveltime="48.54" overlapTraveltime="49.01" density="21.31" occupancy="10.51" waitingTime="151.00" speed="4.94" departed="0" arrived="0" entered="6" left="9" laneChangedFrom="0" laneChangedTo="0"/>
            <lane id="3si_1" sampledSeconds="289.41" traveltime="46.37" overlapTraveltime="46.84" density="20.34" occupancy="10.02" waitingTime="137.00" speed="5.17" departed="0" arrived="0" entered="7" left="9" laneChangedFrom="0" laneChangedTo="0"/>
            <lane id="3si_2" sampledSeconds="0.00" departed="0" arrived="0" entered="0" left="0" laneChangedFrom="0" laneChangedTo="0"/>
        </edge>
        <edge id="4fi">
            <lane id="4fi_0" sampledSeconds="165.19" traveltime="23.72" overlapTraveltime="24.19" density="11.08" occupancy="5.44" waitingTime="0.00" speed="10.48" departed="0" arrived="0" entered="5" left="8" laneChangedFrom="0" laneChangedTo="0"/>
        </edge>
        <edge id="4o">
            <lane id="4o_0" sampledSeconds="409.12" traveltime="47.05" overlapTraveltime="47.53" density="13.95" occupancy="6.89" waitingTime="0.00" speed="10.39" departed="0" arrived="0" entered="14" left="4" laneChangedFrom="0" laneChangedTo="0"/>
        </edge>
        <edge id="4si">
            <lane id="4si_0" sampledSeconds="0.00" departed="0" arrived="0" entered="0" left="0" laneChangedFrom="0" laneChangedTo="0"/>
            <lane id="4si_1" sampledSeconds="129.38" traveltime="18.06" overlapTraveltime="18.48" density="9.09" occupancy="4.44" waitingTime="0.00" speed="13.10" departed="0" arrived="0" entered="7" left="7" laneChangedFrom="0" laneChangedTo="0"/>
            <lane id="4si_2" sampledSeconds="196.48" traveltime="72.63" overlapTraveltime="82.63" density="13.81" occupancy="6.81" waitingTime="118.00" speed="2.93" departed="0" arrived="0" entered="1" left="3" laneChangedFrom="0" laneChangedTo="0"/>
        </edge>
    </interval>
    <interval begin="300.00" end="360.00" id="dump_60">
        <edge id="1fi">
            <lane id="1fi_0" sampledSeconds="267.57" traveltime="25.16" overlapTraveltime="25.59" density="17.95" occupancy="8.85" waitingTime="0.00" speed="9.91" departed="6" arrived="0" entered="1" left="15" laneChangedFrom="0" laneChangedTo="0"/>
        </edge>
        <edge id="1o">
            <lane id="1o_0" sampledSeconds="281.07" traveltime="46.98" overlapTraveltime="47.49" density="9.59" occupancy="4.75" waitingTime="0.00" speed="10.39" departed="0" arrived="0" entered="9" left="1" laneChangedFrom="0" laneChangedTo="0"/>
        </edge>
        <edge id="1si">
            <lane id="1si_0" sampledSeconds="0.00" departed="0" arrived="0" entered="0" left="0" laneChangedFrom="0" laneChangedTo="0"/>
            <lane id="1si_1" sampledSeconds="166.52" traveltime="18.07" overlapTraveltime="18.50" density="11.70" occupancy="5.71" waitingTime="0.00" speed="13.09" departed="0" arrived="0" entered="9" left="9" laneChangedFrom="0" laneChangedTo="0"/>
            <lane id="1si_2" sampledSeconds="519.49" traveltime="82.50" overlapTraveltime="86.72" density="36.51" occupancy="18.02" waitingTime="221.00" speed="2.79" departed="0" arrived="0" entered="6" left="7" laneChangedFrom="0" laneChangedTo="0"/>
        </edge>
        <edge id="2fi">
            <lane id="2fi_0" sampledSeconds="433.80" traveltime="24.68" overlapTraveltime="25.15" density="29.09" occupancy="14.32" waitingTime="0.00" speed="10.08" departed="6" arrived="3" entered="14" left="12" laneChangedFrom="0" laneChangedTo="0"/>
        </edge>
        <edge id="2o">
            <lane id="2o_0" sampledSeconds="720.42" traveltime="47.09" overlapTraveltime="47.61" density="24.57" occupancy="12.17" waitingTime="0.00" speed="10.37" departed="0" arrived="0" entered="12" left="14" laneChangedFrom="0" laneChangedTo="0"/>
        </edge>
        <edge id="2si">
            <lane id="2si_0" sampledSeconds="224.11" traveltime="55.59" overlapTraveltime="55.88" density="15.75" occupancy="7.75" waitingTime="126.00" speed="4.33" departed="0" arrived="0" entered="7" left="7" laneChangedFrom="0" laneChangedTo="0"/>
            <lane id="2si_1" sampledSeconds="218.00" traveltime="39.97" overlapTraveltime="40.53" density="15.32" occupancy="7.53" waitingTime="87.00" speed="5.97" departed="0" arrived="0" entered="4" left="9" laneChangedFrom="0" laneChangedTo="0"/>
            <lane id="2si_2" sampledSeconds="0.00" departed="0" arrived="0" entered="0" left="0" laneChangedFrom="0" laneChangedTo="0"/>
        </edge>
        <edge id="3fi">
            <lane id="3fi_0" sampledSeconds="422.06" traveltime="25.64" overlapTraveltime="26.12" density="28.31" occupancy="14.01" waitingTime="0.00" speed="9.70" departed="12" arrived="5" entered="7" left="9" laneChangedFrom="0" laneChangedTo="0"/>
        </edge>
        <edge id="3o">
            <lane id="3o_0" sampledSeconds="227.33" traveltime="47.32" overlapTraveltime="47.97" density="7.75" occupancy="3.84" waitingTime="0.00" speed="10.29" departed="0" arrived="0" entered="1" left="7" laneChangedFrom="0" laneChangedTo="0"/>
        </edge>
        <edge id="3si">
            <lane id="3si_0" sampledSeconds="285.49" traveltime="53.87" overlapTraveltime="55.00" density="20.06" occupancy="9.99" waitingTime="175.00" speed="4.40" departed="0" arrived="0" entered="5" left="0" laneChangedFrom="0" laneChangedTo="0"/>
            <lane id="3si_1" sampledSeconds="261.11" traveltime="52.87" overlapTraveltime="53.98" density="18.35" occupancy="9.14" waitingTime="157.00" speed="4.49" departed="0" arrived="0" entered="4" left="0" laneChangedFrom="0" laneChangedTo="0"/>
            <lane id="3si_2" sampledSeconds="0.00" departed="0" arrived="0" entered="0" left="0" laneChangedFrom="0" laneChangedTo="0"/>
        </edge>
        <edge id="4fi">
            <lane id="4fi_0" sampledSeconds="342.99" traveltime="23.83" overlapTraveltime="24.29" density="23.00" occupancy="11.30" waitingTime="0.00" speed="10.43" departed="0" arrived="0" entered="13" left="13" laneChangedFrom="0" laneChangedTo="0"/>
        </edge>
        <edge id="4o">
            <lane id="4o_0" sampledSeconds="649.10" traveltime="47.17" overlapTraveltime="47.65" density="22.14" occupancy="10.95" waitingTime="0.00" speed="10.36" departed="0" arrived="0" entered="15" left="13" laneChangedFrom="0" laneChangedTo="0"/>
        </edge>
        <edge id="4si">
            <lane id="4si_0" sampledSeconds="0.00" departed="0" arrived="0" entered="0" left="0" laneChangedFrom="0" laneChangedTo="0"/>
            <lane id="4si_1" sampledSeconds="52.02" traveltime="18.30" overlapTraveltime="18.69" density="3.66" occupancy="1.77" waitingTime="0.00" speed="12.96" departed="0" arrived="0" entered="7" left="0" laneChangedFrom="0" laneChangedTo="0"/>
            <lane id="4si_2" sampledSeconds="185.83" traveltime="32.91" overlapTraveltime="34.06" density="13.06" occupancy="6.43" waitingTime="63.00" speed="7.11" departed="0" arrived="0" entered="6" left="1" laneChangedFrom="0" laneChangedTo="0"/>
        </edge>
    </interval>
    <interval begin="360.00" end="420.00" id="dump_60">
        <edge id="1fi">
            <lane id="1fi_0" sampledSeconds="374.82" traveltime="24.74" overlapTraveltime="25.20" density="25.14" occupancy="12.38" waitingTime="0.00" speed="10.06" departed="6" arrived="0" entered="9" left="15" laneChangedFrom="0" laneChangedTo="0"/>
        </edge>
        <edge id="1o">
            <lane id="1o_0" sampledSeconds="179.63" traveltime="46.98" overlapTraveltime="47.49" density="6.13" occupancy="3.00" waitingTime="0.00" speed="10.39" departed="0" arrived="0" entered="5" left="9" laneChangedFrom="0" laneChangedTo="0"/>
        </edge>
        <edge id="1si">
            <lane id="1si_0" sampledSeconds="0.00" departed="0" arrived="0" entered="0" left="0" laneChangedFrom="0" laneChangedTo="0"/>
            <lane id="1si_1" sampledSeconds="139.42" traveltime="18.09" overlapTraveltime="18.51" density="9.80" occupancy="4.79" waitingTime="0.00" speed="13.08" departed="0" arrived="0" entered="9" left="6" laneChangedFrom="0" laneChangedTo="0"/>
            <lane id="1si_2" sampledSeconds="559.52" traveltime="115.89" overlapTraveltime="120.19" density="39.32" occupancy="19.57" waitingTime="377.00" speed="2.01" departed="0" arrived="0" entered="6" left="2" laneChangedFrom="0" laneChangedTo="0"/>
        </edge>
        <edge id="2fi">
            <lane id="2fi_0" sampledSeconds="485.56" traveltime="24.53" overlapTraveltime="25.00" density="32.57" occupancy="16.03" waitingTime="0.00" speed="10.14" departed="5" arrived="8" entered="14" left="13" laneChangedFrom="0" laneChangedTo="0"/>
        </edge>
        <edge id="2o">
            <lane id="2o_0" sampledSeconds="698.15" traveltime="47.21" overlapTraveltime="47.69" density="23.81" occupancy="11.76" waitingTime="0.00" speed="10.35" departed="0" arrived="0" entered="19" left="14" laneChangedFrom="0" laneChangedTo="0"/>
        </edge>
        <edge id="2si">
            <lane id="2si_0" sampledSeconds="484.14" traveltime="85.14" overlapTraveltime="85.57" density="34.02" occupancy="16.92" waitingTime="326.00" speed="2.83" departed="0" arrived="0" entered="2" left="7" laneChangedFrom="0" laneChangedTo="0"/>
            <lane id="2si_1" sampledSeconds="260.03" traveltime="42.15" overlapTraveltime="42.90" density="18.27" occupancy="9.00" waitingTime="113.00" speed="5.64" departed="0" arrived="0" entered="8" left="6" laneChangedFrom="0" laneChangedTo="0"/>