<?xml version="1.0" encoding="UTF-8"?>

<!-- generated on Mon Nov 12 14:33:16 2018 by Eclipse SUMO Version v1_0_1+0617-70ae16b
This data file and the accompanying materials
are made available under the terms of the Eclipse Public License v2.0
which accompanies this distribution, and is available at
http://www.eclipse.org/legal/epl-v20.html
SPDX-License-Identifier: EPL-2.0
<configuration xmlns:xsi="http://www.w3.org/2001/XMLSchema-instance" xsi:noNamespaceSchemaLocation="http://sumo.dlr.de/xsd/sumoConfiguration.xsd">

    <input>
        <net-file value="net.net.xml"/>
        <route-files value="input_routes.rou.xml"/>
        <additional-files value="input_additional.add.xml"/>
    </input>

    <output>
        <write-license value="true"/>
    </output>

    <time>
        <begin value="0"/>
        <end value="1000"/>
    </time>

    <processing>
        <default.speeddev value="0"/>
    </processing>

    <report>
        <xml-validation value="never"/>
        <duration-log.disable value="true"/>
        <no-step-log value="true"/>
    </report>

</configuration>
-->

<meandata xmlns:xsi="http://www.w3.org/2001/XMLSchema-instance" xsi:noNamespaceSchemaLocation="http://sumo.dlr.de/xsd/meandata_file.xsd">
    <interval begin="0.00" end="900.00" id="dump_900">
        <edge id="1fi">
            <lane id="1fi_0" sampledSeconds="5049.63" traveltime="24.75" overlapTraveltime="25.22" density="22.58" occupancy="11.12" waitingTime="0.00" speed="10.05" departed="79" arrived="14" entered="129" left="183" laneChangedFrom="0" laneChangedTo="0"/>
        </edge>
        <edge id="1o">
            <lane id="1o_0" sampledSeconds="6408.06" traveltime="47.11" overlapTraveltime="47.61" density="14.57" occupancy="7.21" waitingTime="0.00" speed="10.37" departed="0" arrived="0" entered="138" left="129" laneChangedFrom="0" laneChangedTo="0"/>
        </edge>
        <edge id="1si">
            <lane id="1si_0" sampledSeconds="2135.11" traveltime="58.03" overlapTraveltime="58.75" density="10.00" occupancy="4.96" waitingTime="1200.00" speed="4.12" departed="0" arrived="0" entered="41" left="33" laneChangedFrom="0" laneChangedTo="0"/>
            <lane id="1si_1" sampledSeconds="1354.37" traveltime="20.06" overlapTraveltime="20.53" density="6.35" occupancy="3.10" waitingTime="118.00" speed="11.80" departed="0" arrived="0" entered="66" left="65" laneChangedFrom="0" laneChangedTo="0"/>
            <lane id="1si_2" sampledSeconds="11433.05" traveltime="175.31" overlapTraveltime="179.73" density="53.57" occupancy="26.65" waitingTime="6894.00" speed="1.35" departed="0" arrived="0" entered="76" left="52" laneChangedFrom="0" laneChangedTo="0"/>
        </edge>
        <edge id="2fi">
            <lane id="2fi_0" sampledSeconds="5819.22" traveltime="24.66" overlapTraveltime="25.13" density="26.02" occupancy="12.81" waitingTime="0.00" speed="10.09" departed="80" arrived="56" entered="158" left="173" laneChangedFrom="0" laneChangedTo="0"/>
        </edge>
        <edge id="2o">
            <lane id="2o_0" sampledSeconds="7786.44" traveltime="47.09" overlapTraveltime="47.61" density="17.71" occupancy="8.76" waitingTime="0.00" speed="10.37" departed="0" arrived="0" entered="167" left="158" laneChangedFrom="0" laneChangedTo="0"/>
        </edge>
        <edge id="2si">
            <lane id="2si_0" sampledSeconds="3575.06" traveltime="58.01" overlapTraveltime="58.70" density="16.75" occupancy="8.30" waitingTime="2023.00" speed="4.13" departed="0" arrived="0" entered="63" left="58" laneChangedFrom="0" laneChangedTo="0"/>
            <lane id="2si_1" sampledSeconds="2771.40" traveltime="35.76" overlapTraveltime="36.39" density="12.98" occupancy="6.40" waitingTime="1057.00" speed="6.65" departed="0" arrived="0" entered="77" left="75" laneChangedFrom="0" laneChangedTo="0"/>
            <lane id="2si_2" sampledSeconds="2236.82" traveltime="64.45" overlapTraveltime="69.77" density="10.48" occupancy="5.16" waitingTime="1150.00" speed="3.47" departed="0" arrived="0" entered="33" left="32" laneChangedFrom="0" laneChangedTo="0"/>
        </edge>
        <edge id="3fi">
            <lane id="3fi_0" sampledSeconds="6312.08" traveltime="25.20" overlapTraveltime="25.67" density="28.22" occupancy="13.94" waitingTime="0.00" speed="9.87" departed="146" arrived="80" entered="108" left="165" laneChangedFrom="0" laneChangedTo="0"/>
        </edge>
        <edge id="3o">
            <lane id="3o_0" sampledSeconds="5478.70" traveltime="47.02" overlapTraveltime="47.54" density="12.46" occupancy="6.16" waitingTime="0.00" speed="10.38" departed="0" arrived="0" entered="122" left="108" laneChangedFrom="0" laneChangedTo="0"/>
        </edge>
        <edge id="3si">
            <lane id="3si_0" sampledSeconds="3205.64" traveltime="46.06" overlapTraveltime="46.75" density="15.02" occupancy="7.43" waitingTime="1619.00" speed="5.18" departed="0" arrived="0" entered="69" left="64" laneChangedFrom="0" laneChangedTo="0"/>
            <lane id="3si_1" sampledSeconds="3170.37" traveltime="45.58" overlapTraveltime="46.26" density="14.85" occupancy="7.34" waitingTime="1599.00" speed="5.23" departed="0" arrived="0" entered="69" left="64" laneChangedFrom="0" laneChangedTo="0"/>
            <lane id="3si_2" sampledSeconds="1301.65" traveltime="45.35" overlapTraveltime="49.33" density="6.10" occupancy="3.00" waitingTime="523.00" speed="4.91" departed="0" arrived="0" entered="27" left="21" laneChangedFrom="0" laneChangedTo="0"/>
        </edge>
        <edge id="4fi">
            <lane id="4fi_0" sampledSeconds="3864.76" traveltime="23.83" overlapTraveltime="24.29" density="17.28" occupancy="8.47" waitingTime="0.00" speed="10.43" departed="0" arrived="0" entered="160" left="158" laneChangedFrom="0" laneChangedTo="0"/>
        </edge>
        <edge id="4o">
            <lane id="4o_0" sampledSeconds="7921.71" traveltime="47.05" overlapTraveltime="47.53" density="18.01" occupancy="8.91" waitingTime="0.00" speed="10.39" departed="0" arrived="0" entered="174" left="160" laneChangedFrom="0" laneChangedTo="0"/>
        </edge>
        <edge id="4si">
            <lane id="4si_0" sampledSeconds="3083.52" traveltime="61.33" overlapTraveltime="62.09" density="14.45" occupancy="7.17" waitingTime="1793.00" speed="3.90" departed="0" arrived="0" entered="51" left="42" laneChangedFrom="0" laneChangedTo="0"/>
            <lane id="4si_1" sampledSeconds="1166.85" traveltime="19.09" overlapTraveltime="19.54" density="5.47" occupancy="2.67" waitingTime="54.00" speed="12.39" departed="0" arrived="0" entered="62" left="57" laneChangedFrom="0" laneChangedTo="0"/>
            <lane id="4si_2" sampledSeconds="2512.34" traveltime="52.23" overlapTraveltime="56.87" density="11.77" occupancy="5.79" waitingTime="1131.00" speed="4.26" departed="0" arrived="0" entered="45" left="38" laneChangedFrom="0" laneChangedTo="0"/>
        </edge>
    </interval>
    <interval begin="900.00" end="1000.00" id="dump_900">
        <edge id="1fi">
            <lane id="1fi_0" sampledSeconds="1144.62" traveltime="32.10" overlapTraveltime="33.56" density="46.06" occupancy="22.61" waitingTime="121.00" speed="7.55" departed="10" arrived="7" entered="26" left="20" laneChangedFrom="0" laneChangedTo="0"/>
        </edge>
        <edge id="1o">
            <lane id="1o_0" sampledSeconds="1211.63" traveltime="47.08" overlapTraveltime="47.59" density="24.80" occupancy="12.26" waitingTime="0.00" speed="10.37" departed="0" arrived="0" entered="27" left="26" laneChangedFrom="0" laneChangedTo="0"/>
        </edge>
        <edge id="1si">
            <lane id="1si_0" sampledSeconds="500.11" traveltime="88.28" overlapTraveltime="88.19" density="21.09" occupancy="10.47" waitingTime="325.00" speed="2.75" departed="0" arrived="0" entered="2" left="9" laneChangedFrom="0" laneChangedTo="0"/>
            <lane id="1si_1" sampledSeconds="209.40" traveltime="23.53" overlapTraveltime="24.08" density="8.83" occupancy="4.32" waitingTime="45.00" speed="10.06" departed="0" arrived="0" entered="9" left="9" laneChangedFrom="0" laneChangedTo="0"/>
            <lane id="1si_2" sampledSeconds="2758.64" traveltime="332.30" overlapTraveltime="337.29" density="116.32" occupancy="57.82" waitingTime="1347.00" speed="0.72" departed="0" arrived="0" entered="9" left="6" laneChangedFrom="0" laneChangedTo="0"/>
        </edge>
        <edge id="2fi">
            <lane id="2fi_0" sampledSeconds="821.14" traveltime="24.49" overlapTraveltime="24.96" density="33.04" occupancy="16.26" waitingTime="0.00" speed="10.16" departed="10" arrived="9" entered="24" left="24" laneChangedFrom="0" laneChangedTo="0"/>
        </edge>
        <edge id="2o">
            <lane id="2o_0" sampledSeconds="1156.64" traveltime="46.88" overlapTraveltime="47.39" density="23.67" occupancy="11.70" waitingTime="0.00" speed="10.42" departed="0" arrived="0" entered="26" left="24" laneChangedFrom="0" laneChangedTo="0"/>
        </edge>
        <edge id="2si">
            <lane id="2si_0" sampledSeconds="419.62" traveltime="50.41" overlapTraveltime="51.22" density="17.69" occupancy="8.77" waitingTime="213.00" speed="4.73" departed="0" arrived="0" entered="8" left="6" laneChangedFrom="0" laneChangedTo="0"/>
            <lane id="2si_1" sampledSeconds="387.83" traveltime="39.20" overlapTraveltime="39.88" density="16.35" occupancy="8.08" waitingTime="165.00" speed="6.07" departed="0" arrived="0" entered="10" left="8" laneChangedFrom="0" laneChangedTo="0"/>
            <lane id="2si_2" sampledSeconds="374.47" traveltime="53.47" overlapTraveltime="57.30" density="15.79" occupancy="7.77" waitingTime="168.00" speed="4.23" departed="0" arrived="0" entered="6" left="6" laneChangedFrom="0" laneChangedTo="0"/>
        </edge>
        <edge id="3fi">
            <lane id="3fi_0" sampledSeconds="955.00" traveltime="24.88" overlapTraveltime="25.36" density="38.43" occupancy="18.96" waitingTime="0.00" speed="10.00" departed="16" arrived="16" entered="22" left="22" laneChangedFrom="0" laneChangedTo="0"/>
        </edge>
        <edge id="3o">
            <lane id="3o_0" sampledSeconds="1132.88" traveltime="46.89" overlapTraveltime="47.40" density="23.18" occupancy="11.47" waitingTime="0.00" speed="10.42" departed="0" arrived="0" entered="24" left="23" laneChangedFrom="0" laneChangedTo="0"/>
        </edge>
        <edge id="3si">
            <lane id="3si_0" sampledSeconds="376.53" traveltime="44.72" overlapTraveltime="45.44" density="15.88" occupancy="7.81" waitingTime="181.00" speed="5.33" departed="0" arrived="0" entered="9" left="11" laneChangedFrom="0" laneChangedTo="0"/>
            <lane id="3si_1" sampledSeconds="323.42" traveltime="40.20" overlapTraveltime="40.91" density="13.64" occupancy="6.70" waitingTime="131.00" speed="5.92" departed="0" arrived="0" entered="8" left="11" laneChangedFrom="0" laneChangedTo="0"/>
            <lane id="3si_2" sampledSeconds="343.59" traveltime="58.95" overlapTraveltime="64.24" density="14.49" occupancy="7.11" waitingTime="149.00" speed="3.77" departed="0" arrived="0" entered="5" left="8" laneChangedFrom="0" laneChangedTo="0"/>
        </edge>
        <edge id="4fi">
            <lane id="4fi_0" sampledSeconds="536.23" traveltime="23.78" overlapTraveltime="24.24" density="21.58" occupancy="10.58" waitingTime="0.00" speed="10.46" departed="0" arrived="0" entered="23" left="22" laneChangedFrom="0" laneChangedTo="0"/>
        </edge>
        <edge id="4o">
            <lane id="4o_0" sampledSeconds="1095.40" traveltime="47.10" overlapTraveltime="47.59" density="22.42" occupancy="11.09" waitingTime="0.00" speed="10.37" departed="0" arrived="0" entered="22" left="24" laneChangedFrom="0" laneChangedTo="0"/>
        </edge>
        <edge id="4si">
            <lane id="4si_0" sampledSeconds="525.07" traveltime="65.11" overlapTraveltime="65.42" density="22.14" occupancy="10.94" waitingTime="287.00" speed="3.70" departed="0" arrived="0" entered="7" left="13" laneChangedFrom="0" laneChangedTo="0"/>
            <lane id="4si_1" sampledSeconds="229.60" traveltime="24.17" overlapTraveltime="24.73" density="9.68" occupancy="4.75" waitingTime="53.00" speed="9.79" departed="0" arrived="0" entered="8" left="10" laneChangedFrom="0" laneChangedTo="0"/>
            <lane id="4si_2" sampledSeconds="523.19" traveltime="69.89" overlapTraveltime="74.80" density="22.06" occupancy="10.88" waitingTime="251.00" speed="3.24" departed="0" arrived="0" entered="7" left="8" laneChangedFrom="0" laneChangedTo="0"/>
        </edge>
    </interval>
</meandata>
