<?xml version="1.0" encoding="UTF-8"?>

<!-- generated on Mon Nov 12 14:33:54 2018 by Eclipse SUMO Version v1_0_1+0617-70ae16b
This data file and the accompanying materials
are made available under the terms of the Eclipse Public License v2.0
which accompanies this distribution, and is available at
http://www.eclipse.org/legal/epl-v20.html
SPDX-License-Identifier: EPL-2.0
<configuration xmlns:xsi="http://www.w3.org/2001/XMLSchema-instance" xsi:noNamespaceSchemaLocation="http://sumo.dlr.de/xsd/sumoConfiguration.xsd">

    <input>
        <net-file value="net.net.xml"/>
        <route-files value="input_routes.rou.xml"/>
    </input>

    <output>
        <write-license value="true"/>
        <fcd-output value="fcd.xml"/>
        <tripinfo-output value="tripinfos.xml"/>
    </output>

    <processing>
        <default.speeddev value="0"/>
    </processing>

    <report>
        <xml-validation value="never"/>
        <no-step-log value="true"/>
    </report>

</configuration>
-->

<fcd-export xmlns:xsi="http://www.w3.org/2001/XMLSchema-instance" xsi:noNamespaceSchemaLocation="http://sumo.dlr.de/xsd/fcd_file.xsd">
    <timestep time="0.00">
        <vehicle id="oncoming1" x="100.00" y="1.65" angle="270.00" type="DEFAULT_VEHTYPE" speed="0.00" pos="100.00" lane="-VODUGES_beg_0" slope="0.00"/>
        <vehicle id="oncoming2" x="200.00" y="1.65" angle="270.00" type="DEFAULT_VEHTYPE" speed="0.00" pos="0.00" lane="-VODUGES_beg_0" slope="0.00"/>
        <vehicle id="overtaking" x="0.00" y="-1.65" angle="90.00" type="DEFAULT_VEHTYPE" speed="0.00" pos="0.00" lane="VODUGES_beg_0" slope="0.00"/>
        <vehicle id="stopped" x="40.00" y="-1.65" angle="90.00" type="stopper" speed="0.00" pos="40.00" lane="VODUGES_beg_0" slope="0.00"/>
    </timestep>
    <timestep time="1.00">
        <vehicle id="oncoming1" x="98.56" y="1.65" angle="270.00" type="DEFAULT_VEHTYPE" speed="1.44" pos="101.44" lane="-VODUGES_beg_0" slope="0.00"/>
        <vehicle id="oncoming2" x="198.33" y="1.65" angle="270.00" type="DEFAULT_VEHTYPE" speed="1.67" pos="1.67" lane="-VODUGES_beg_0" slope="0.00"/>
        <vehicle id="overtaking" x="2.20" y="-1.65" angle="90.00" type="DEFAULT_VEHTYPE" speed="2.20" pos="2.20" lane="VODUGES_beg_0" slope="0.00"/>
        <vehicle id="stopped" x="42.60" y="-1.65" angle="90.00" type="stopper" speed="2.60" pos="42.60" lane="VODUGES_beg_0" slope="0.00"/>
    </timestep>
    <timestep time="2.00">
        <vehicle id="oncoming1" x="94.58" y="1.65" angle="270.00" type="DEFAULT_VEHTYPE" speed="3.98" pos="105.42" lane="-VODUGES_beg_0" slope="0.00"/>
        <vehicle id="oncoming2" x="194.69" y="1.65" angle="270.00" type="DEFAULT_VEHTYPE" speed="3.63" pos="5.31" lane="-VODUGES_beg_0" slope="0.00"/>
        <vehicle id="overtaking" x="6.14" y="-1.65" angle="90.00" type="DEFAULT_VEHTYPE" speed="3.94" pos="6.14" lane="VODUGES_beg_0" slope="0.00"/>
        <vehicle id="stopped" x="46.88" y="-1.65" angle="90.00" type="stopper" speed="4.28" pos="46.88" lane="VODUGES_beg_0" slope="0.00"/>
    </timestep>
    <timestep time="3.00">
        <vehicle id="oncoming1" x="88.76" y="1.65" angle="270.00" type="DEFAULT_VEHTYPE" speed="5.82" pos="111.24" lane="-VODUGES_beg_0" slope="0.00"/>
        <vehicle id="oncoming2" x="188.51" y="1.65" angle="270.00" type="DEFAULT_VEHTYPE" speed="6.18" pos="11.49" lane="-VODUGES_beg_0" slope="0.00"/>
        <vehicle id="overtaking" x="11.45" y="-1.65" angle="90.00" type="DEFAULT_VEHTYPE" speed="5.31" pos="11.45" lane="VODUGES_beg_0" slope="0.00"/>
        <vehicle id="stopped" x="49.11" y="-1.65" angle="90.00" type="stopper" speed="2.24" pos="49.11" lane="VODUGES_beg_0" slope="0.00"/>
    </timestep>
    <timestep time="4.00">
        <vehicle id="oncoming1" x="81.31" y="1.65" angle="270.00" type="DEFAULT_VEHTYPE" speed="7.45" pos="118.69" lane="-VODUGES_beg_0" slope="0.00"/>
        <vehicle id="oncoming2" x="180.06" y="1.65" angle="270.00" type="DEFAULT_VEHTYPE" speed="8.46" pos="19.94" lane="-VODUGES_beg_0" slope="0.00"/>
        <vehicle id="overtaking" x="18.34" y="-1.65" angle="90.00" type="DEFAULT_VEHTYPE" speed="6.90" pos="18.34" lane="VODUGES_beg_0" slope="0.00"/>
        <vehicle id="stopped" x="49.87" y="-1.65" angle="90.00" type="stopper" speed="0.75" pos="49.87" lane="VODUGES_beg_0" slope="0.00"/>
    </timestep>
    <timestep time="5.00">
        <vehicle id="oncoming1" x="71.97" y="1.65" angle="270.00" type="DEFAULT_VEHTYPE" speed="9.34" pos="128.03" lane="-VODUGES_beg_0" slope="0.00"/>
        <vehicle id="oncoming2" x="169.97" y="1.65" angle="270.00" type="DEFAULT_VEHTYPE" speed="10.09" pos="30.03" lane="-VODUGES_beg_0" slope="0.00"/>
        <vehicle id="overtaking" x="26.96" y="-1.65" angle="90.00" type="DEFAULT_VEHTYPE" speed="8.62" pos="26.96" lane="VODUGES_beg_0" slope="0.00"/>
        <vehicle id="stopped" x="49.99" y="-1.65" angle="90.00" type="stopper" speed="0.13" pos="49.99" lane="VODUGES_beg_0" slope="0.00"/>
    </timestep>
    <timestep time="6.00">
        <vehicle id="oncoming1" x="60.04" y="1.65" angle="270.00" type="DEFAULT_VEHTYPE" speed="11.93" pos="139.96" lane="-VODUGES_beg_0" slope="0.00"/>
        <vehicle id="oncoming2" x="158.16" y="1.65" angle="270.00" type="DEFAULT_VEHTYPE" speed="11.81" pos="41.84" lane="-VODUGES_beg_0" slope="0.00"/>
        <vehicle id="overtaking" x="35.63" y="-1.65" angle="90.00" type="DEFAULT_VEHTYPE" speed="8.67" pos="35.63" lane="VODUGES_beg_0" slope="0.00"/>
        <vehicle id="stopped" x="50.00" y="-1.65" angle="90.00" type="stopper" speed="0.00" pos="50.00" lane="VODUGES_beg_0" slope="0.00"/>
    </timestep>
    <timestep time="7.00">
        <vehicle id="oncoming1" x="46.75" y="1.65" angle="270.00" type="DEFAULT_VEHTYPE" speed="13.28" pos="153.25" lane="-VODUGES_beg_0" slope="0.00"/>
        <vehicle id="oncoming2" x="144.85" y="1.65" angle="270.00" type="DEFAULT_VEHTYPE" speed="13.30" pos="55.15" lane="-VODUGES_beg_0" slope="0.00"/>
        <vehicle id="overtaking" x="40.25" y="-1.65" angle="90.00" type="DEFAULT_VEHTYPE" speed="4.61" pos="40.25" lane="VODUGES_beg_0" slope="0.00"/>
        <vehicle id="stopped" x="50.00" y="-1.65" angle="90.00" type="stopper" speed="0.00" pos="50.00" lane="VODUGES_beg_0" slope="0.00"/>
    </timestep>
    <timestep time="8.00">
        <vehicle id="oncoming1" x="33.60" y="1.65" angle="270.00" type="DEFAULT_VEHTYPE" speed="13.15" pos="166.40" lane="-VODUGES_beg_0" slope="0.00"/>
        <vehicle id="oncoming2" x="131.31" y="1.65" angle="270.00" type="DEFAULT_VEHTYPE" speed="13.55" pos="68.69" lane="-VODUGES_beg_0" slope="0.00"/>
        <vehicle id="overtaking" x="41.73" y="-1.65" angle="90.00" type="DEFAULT_VEHTYPE" speed="1.48" pos="41.73" lane="VODUGES_beg_0" slope="0.00"/>
        <vehicle id="stopped" x="50.00" y="-1.65" angle="90.00" type="stopper" speed="0.00" pos="50.00" lane="VODUGES_beg_0" slope="0.00"/>
    </timestep>
    <timestep time="9.00">
        <vehicle id="oncoming1" x="20.45" y="1.65" angle="270.00" type="DEFAULT_VEHTYPE" speed="13.15" pos="179.55" lane="-VODUGES_beg_0" slope="0.00"/>
        <vehicle id="oncoming2" x="118.56" y="1.65" angle="270.00" type="DEFAULT_VEHTYPE" speed="12.75" pos="81.44" lane="-VODUGES_beg_0" slope="0.00"/>
        <vehicle id="overtaking" x="42.40" y="-1.65" angle="90.00" type="DEFAULT_VEHTYPE" speed="0.67" pos="42.40" lane="VODUGES_beg_0" slope="0.00"/>
        <vehicle id="stopped" x="50.00" y="-1.65" angle="90.00" type="stopper" speed="0.00" pos="50.00" lane="VODUGES_beg_0" slope="0.00"/>
    </timestep>
    <timestep time="10.00">
        <vehicle id="oncoming1" x="6.97" y="1.65" angle="270.00" type="DEFAULT_VEHTYPE" speed="13.47" pos="193.03" lane="-VODUGES_beg_0" slope="0.00"/>
        <vehicle id="oncoming2" x="105.55" y="1.65" angle="270.00" type="DEFAULT_VEHTYPE" speed="13.00" pos="94.45" lane="-VODUGES_beg_0" slope="0.00"/>
        <vehicle id="overtaking" x="42.47" y="-1.65" angle="90.00" type="DEFAULT_VEHTYPE" speed="0.08" pos="42.47" lane="VODUGES_beg_0" slope="0.00"/>
        <vehicle id="stopped" x="51.54" y="-1.65" angle="90.00" type="stopper" speed="1.54" pos="51.54" lane="VODUGES_beg_0" slope="0.00"/>
    </timestep>
    <timestep time="11.00">
        <vehicle id="oncoming2" x="92.33" y="1.65" angle="270.00" type="DEFAULT_VEHTYPE" speed="13.22" pos="107.67" lane="-VODUGES_beg_0" slope="0.00"/>
        <vehicle id="overtaking" x="43.49" y="-1.65" angle="90.00" type="DEFAULT_VEHTYPE" speed="1.02" pos="43.49" lane="VODUGES_beg_0" slope="0.00"/>
        <vehicle id="stopped" x="55.56" y="-1.65" angle="90.00" type="stopper" speed="4.02" pos="55.56" lane="VODUGES_beg_0" slope="0.00"/>
    </timestep>
    <timestep time="12.00">
        <vehicle id="oncoming2" x="78.84" y="1.65" angle="270.00" type="DEFAULT_VEHTYPE" speed="13.49" pos="121.16" lane="-VODUGES_beg_0" slope="0.00"/>
        <vehicle id="overtaking" x="45.87" y="-1.65" angle="90.00" type="DEFAULT_VEHTYPE" speed="2.38" pos="45.87" lane="VODUGES_beg_0" slope="0.00"/>
        <vehicle id="stopped" x="61.89" y="-1.65" angle="90.00" type="stopper" speed="6.33" pos="61.89" lane="VODUGES_beg_0" slope="0.00"/>
    </timestep>
    <timestep time="13.00">
        <vehicle id="oncoming2" x="65.77" y="1.65" angle="270.00" type="DEFAULT_VEHTYPE" speed="13.07" pos="134.23" lane="-VODUGES_beg_0" slope="0.00"/>
        <vehicle id="overtaking" x="50.66" y="-1.65" angle="90.00" type="DEFAULT_VEHTYPE" speed="4.79" pos="50.66" lane="VODUGES_beg_0" slope="0.00"/>
        <vehicle id="stopped" x="70.58" y="-1.65" angle="90.00" type="stopper" speed="8.69" pos="70.58" lane="VODUGES_beg_0" slope="0.00"/>
    </timestep>
    <timestep time="14.00">
        <vehicle id="oncoming2" x="53.10" y="1.65" angle="270.00" type="DEFAULT_VEHTYPE" speed="12.67" pos="146.90" lane="-VODUGES_beg_0" slope="0.00"/>
        <vehicle id="overtaking" x="57.85" y="-1.65" angle="90.00" type="DEFAULT_VEHTYPE" speed="7.19" pos="57.85" lane="VODUGES_beg_0" slope="0.00"/>
        <vehicle id="stopped" x="81.58" y="-1.65" angle="90.00" type="stopper" speed="11.00" pos="81.58" lane="VODUGES_beg_0" slope="0.00"/>
    </timestep>
    <timestep time="15.00">
        <vehicle id="oncoming2" x="40.29" y="1.65" angle="270.00" type="DEFAULT_VEHTYPE" speed="12.82" pos="159.71" lane="-VODUGES_beg_0" slope="0.00"/>
        <vehicle id="overtaking" x="66.90" y="-1.65" angle="90.00" type="DEFAULT_VEHTYPE" speed="9.05" pos="66.90" lane="VODUGES_beg_0" slope="0.00"/>
        <vehicle id="stopped" x="94.73" y="-1.65" angle="90.00" type="stopper" speed="13.15" pos="94.73" lane="VODUGES_beg_0" slope="0.00"/>
    </timestep>
    <timestep time="16.00">
        <vehicle id="oncoming2" x="27.55" y="1.65" angle="270.00" type="DEFAULT_VEHTYPE" speed="12.74" pos="172.45" lane="-VODUGES_beg_0" slope="0.00"/>
        <vehicle id="overtaking" x="77.50" y="-1.65" angle="90.00" type="DEFAULT_VEHTYPE" speed="10.60" pos="77.50" lane="VODUGES_beg_0" slope="0.00"/>
        <vehicle id="stopped" x="108.46" y="-1.65" angle="90.00" type="stopper" speed="13.73" pos="108.46" lane="VODUGES_beg_0" slope="0.00"/>
    </timestep>
    <timestep time="17.00">
        <vehicle id="oncoming2" x="14.18" y="1.65" angle="270.00" type="DEFAULT_VEHTYPE" speed="13.37" pos="185.82" lane="-VODUGES_beg_0" slope="0.00"/>
        <vehicle id="overtaking" x="89.62" y="-1.65" angle="90.00" type="DEFAULT_VEHTYPE" speed="12.12" pos="89.62" lane="VODUGES_beg_0" slope="0.00"/>
        <vehicle id="stopped" x="121.85" y="-1.65" angle="90.00" type="stopper" speed="13.39" pos="121.85" lane="VODUGES_beg_0" slope="0.00"/>
    </timestep>
    <timestep time="18.00">
        <vehicle id="oncoming2" x="0.99" y="1.65" angle="270.00" type="DEFAULT_VEHTYPE" speed="13.18" pos="199.01" lane="-VODUGES_beg_0" slope="0.00"/>
        <vehicle id="overtaking" x="102.85" y="-1.65" angle="90.00" type="DEFAULT_VEHTYPE" speed="13.23" pos="102.85" lane="VODUGES_beg_0" slope="0.00"/>
        <vehicle id="stopped" x="134.49" y="-1.65" angle="90.00" type="stopper" speed="12.64" pos="134.49" lane="VODUGES_beg_0" slope="0.00"/>
    </timestep>
    <timestep time="19.00">
        <vehicle id="overtaking" x="116.49" y="-1.65" angle="90.00" type="DEFAULT_VEHTYPE" speed="13.64" pos="116.49" lane="VODUGES_beg_0" slope="0.00"/>
        <vehicle id="stopped" x="148.27" y="-1.65" angle="90.00" type="stopper" speed="13.79" pos="148.27" lane="VODUGES_beg_0" slope="0.00"/>
    </timestep>
    <timestep time="20.00">
        <vehicle id="overtaking" x="129.28" y="-1.65" angle="90.00" type="DEFAULT_VEHTYPE" speed="12.79" pos="129.28" lane="VODUGES_beg_0" slope="0.00"/>
        <vehicle id="stopped" x="161.21" y="-1.65" angle="90.00" type="stopper" speed="12.93" pos="161.21" lane="VODUGES_beg_0" slope="0.00"/>
    </timestep>
    <timestep time="21.00">
        <vehicle id="overtaking" x="141.93" y="-1.65" angle="90.00" type="DEFAULT_VEHTYPE" speed="12.65" pos="141.93" lane="VODUGES_beg_0" slope="0.00"/>
        <vehicle id="stopped" x="174.25" y="-1.65" angle="90.00" type="stopper" speed="13.04" pos="174.25" lane="VODUGES_beg_0" slope="0.00"/>
    </timestep>
    <timestep time="22.00">
        <vehicle id="overtaking" x="155.01" y="-1.65" angle="90.00" type="DEFAULT_VEHTYPE" speed="13.08" pos="155.01" lane="VODUGES_beg_0" slope="0.00"/>
        <vehicle id="stopped" x="187.22" y="-1.65" angle="90.00" type="stopper" speed="12.97" pos="187.22" lane="VODUGES_beg_0" slope="0.00"/>
    </timestep>
    <timestep time="23.00">
        <vehicle id="overtaking" x="168.11" y="-1.65" angle="90.00" type="DEFAULT_VEHTYPE" speed="13.10" pos="168.11" lane="VODUGES_beg_0" slope="0.00"/>
    </timestep>
    <timestep time="24.00">
        <vehicle id="overtaking" x="181.35" y="-1.65" angle="90.00" type="DEFAULT_VEHTYPE" speed="13.24" pos="181.35" lane="VODUGES_beg_0" slope="0.00"/>
    </timestep>
    <timestep time="25.00">
        <vehicle id="overtaking" x="194.27" y="-1.65" angle="90.00" type="DEFAULT_VEHTYPE" speed="12.92" pos="194.27" lane="VODUGES_beg_0" slope="0.00"/>
    </timestep>
    <timestep time="26.00"/>
</fcd-export>
