<?xml version="1.0" encoding="UTF-8"?>

<!-- generated on Mon Nov 12 14:33:16 2018 by Eclipse SUMO Version v1_0_1+0617-70ae16b
This data file and the accompanying materials
are made available under the terms of the Eclipse Public License v2.0
which accompanies this distribution, and is available at
http://www.eclipse.org/legal/epl-v20.html
SPDX-License-Identifier: EPL-2.0
<configuration xmlns:xsi="http://www.w3.org/2001/XMLSchema-instance" xsi:noNamespaceSchemaLocation="http://sumo.dlr.de/xsd/sumoConfiguration.xsd">

    <input>
        <net-file value="net.net.xml"/>
        <route-files value="input_routes.rou.xml"/>
    </input>

    <output>
        <write-license value="true"/>
        <tripinfo-output value="tripinfos.xml"/>
    </output>

    <time>
        <begin value="0"/>
        <end value="1000"/>
    </time>

    <processing>
        <default.speeddev value="0"/>
    </processing>

    <report>
        <xml-validation value="never"/>
        <duration-log.disable value="true"/>
        <no-step-log value="true"/>
    </report>

</configuration>
-->

<tripinfos xmlns:xsi="http://www.w3.org/2001/XMLSchema-instance" xsi:noNamespaceSchemaLocation="http://sumo.dlr.de/xsd/tripinfo_file.xsd">
    <tripinfo id="horizontal.0" depart="100.00" departLane="2fi_0" departPos="5.10" departSpeed="0.00" departDelay="0.00" arrival="310.00" arrivalLane="2fi_0" arrivalPos="248.50" arrivalSpeed="10.78" duration="210.00" routeLength="2257.40" waitingTime="0.00" waitingCount="0" stopTime="0.00" timeLoss="15.15" rerouteNo="0" devices="tripinfo_horizontal.0" vType="DEFAULT_VEHTYPE" speedFactor="1.00" vaporized=""/>
    <tripinfo id="horizontal.1" depart="110.00" departLane="2fi_0" departPos="5.10" departSpeed="0.00" departDelay="0.00" arrival="319.00" arrivalLane="2fi_0" arrivalPos="248.50" arrivalSpeed="10.45" duration="209.00" routeLength="2257.40" waitingTime="0.00" waitingCount="0" stopTime="0.00" timeLoss="14.86" rerouteNo="0" devices="tripinfo_horizontal.1" vType="DEFAULT_VEHTYPE" speedFactor="1.00" vaporized=""/>
    <tripinfo id="horizontal.2" depart="120.00" departLane="2fi_0" departPos="5.10" departSpeed="0.00" departDelay="0.00" arrival="329.00" arrivalLane="2fi_0" arrivalPos="248.50" arrivalSpeed="10.54" duration="209.00" routeLength="2257.40" waitingTime="0.00" waitingCount="0" stopTime="0.00" timeLoss="14.13" rerouteNo="0" devices="tripinfo_horizontal.2" vType="DEFAULT_VEHTYPE" speedFactor="1.00" vaporized=""/>
    <tripinfo id="vertical.0" depart="103.00" departLane="3fi_0" departPos="5.10" departSpeed="0.00" departDelay="3.00" arrival="348.00" arrivalLane="3fi_0" arrivalPos="248.50" arrivalSpeed="11.04" duration="245.00" routeLength="2257.40" waitingTime="31.00" waitingCount="1" stopTime="0.00" timeLoss="50.99" rerouteNo="0" devices="tripinfo_vertical.0" vType="DEFAULT_VEHTYPE" speedFactor="1.00" vaporized=""/>
    <tripinfo id="vertical.1" depart="113.00" departLane="3fi_0" departPos="5.10" departSpeed="0.00" departDelay="3.00" arrival="350.00" arrivalLane="3fi_0" arrivalPos="248.50" arrivalSpeed="10.20" duration="237.00" routeLength="2257.40" waitingTime="22.00" waitingCount="1" stopTime="0.00" timeLoss="42.97" rerouteNo="0" devices="tripinfo_vertical.1" vType="DEFAULT_VEHTYPE" speedFactor="1.00" vaporized=""/>
    <tripinfo id="vertical.2" depart="123.00" departLane="3fi_0" departPos="5.10" departSpeed="0.00" departDelay="3.00" arrival="352.00" arrivalLane="3fi_0" arrivalPos="248.50" arrivalSpeed="10.76" duration="229.00" routeLength="2257.40" waitingTime="13.00" waitingCount="1" stopTime="0.00" timeLoss="34.80" rerouteNo="0" devices="tripinfo_vertical.2" vType="DEFAULT_VEHTYPE" speedFactor="1.00" vaporized=""/>
    <tripinfo id="vertical.3" depart="133.00" departLane="3fi_0" departPos="5.10" departSpeed="0.00" departDelay="3.00" arrival="354.00" arrivalLane="3fi_0" arrivalPos="248.50" arrivalSpeed="9.83" duration="221.00" routeLength="2257.40" waitingTime="2.00" waitingCount="1" stopTime="0.00" timeLoss="26.69" rerouteNo="0" devices="tripinfo_vertical.3" vType="DEFAULT_VEHTYPE" speedFactor="1.00" vaporized=""/>
    <tripinfo id="vertical.4" depart="143.00" departLane="3fi_0" departPos="5.10" departSpeed="0.00" departDelay="3.00" arrival="356.00" arrivalLane="3fi_0" arrivalPos="248.50" arrivalSpeed="10.94" duration="213.00" routeLength="2257.40" waitingTime="0.00" waitingCount="0" stopTime="0.00" timeLoss="18.70" rerouteNo="0" devices="tripinfo_vertical.4" vType="DEFAULT_VEHTYPE" speedFactor="1.00" vaporized=""/>
    <tripinfo id="vertical.5" depart="153.00" departLane="3fi_0" departPos="5.10" departSpeed="0.00" departDelay="3.00" arrival="362.00" arrivalLane="3fi_0" arrivalPos="248.50" arrivalSpeed="10.07" duration="209.00" routeLength="2257.40" waitingTime="0.00" waitingCount="0" stopTime="0.00" timeLoss="14.79" rerouteNo="0" devices="tripinfo_vertical.5" vType="DEFAULT_VEHTYPE" speedFactor="1.00" vaporized=""/>
    <tripinfo id="vertical.6" depart="163.00" departLane="3fi_0" departPos="5.10" departSpeed="0.00" departDelay="3.00" arrival="372.00" arrivalLane="3fi_0" arrivalPos="248.50" arrivalSpeed="10.98" duration="209.00" routeLength="2257.40" waitingTime="0.00" waitingCount="0" stopTime="0.00" timeLoss="14.61" rerouteNo="0" devices="tripinfo_vertical.6" vType="DEFAULT_VEHTYPE" speedFactor="1.00" vaporized=""/>
    <tripinfo id="horizontal.3" depart="130.00" departLane="2fi_0" departPos="5.10" departSpeed="0.00" departDelay="0.00" arrival="391.00" arrivalLane="2fi_0" arrivalPos="248.50" arrivalSpeed="10.85" duration="261.00" routeLength="2257.40" waitingTime="47.00" waitingCount="1" stopTime="0.00" timeLoss="66.72" rerouteNo="0" devices="tripinfo_horizontal.3" vType="DEFAULT_VEHTYPE" speedFactor="1.00" vaporized=""/>
    <tripinfo id="horizontal.4" depart="140.00" departLane="2fi_0" departPos="5.10" departSpeed="0.00" departDelay="0.00" arrival="393.00" arrivalLane="2fi_0" arrivalPos="248.50" arrivalSpeed="10.27" duration="253.00" routeLength="2257.40" waitingTime="40.00" waitingCount="1" stopTime="0.00" timeLoss="58.77" rerouteNo="0" devices="tripinfo_horizontal.4" vType="DEFAULT_VEHTYPE" speedFactor="1.00" vaporized=""/>
    <tripinfo id="horizontal.5" depart="150.00" departLane="2fi_0" departPos="5.10" departSpeed="0.00" departDelay="0.00" arrival="396.00" arrivalLane="2fi_0" arrivalPos="248.50" arrivalSpeed="11.02" duration="246.00" routeLength="2257.40" waitingTime="31.00" waitingCount="1" stopTime="0.00" timeLoss="51.29" rerouteNo="0" devices="tripinfo_horizontal.5" vType="DEFAULT_VEHTYPE" speedFactor="1.00" vaporized=""/>
    <tripinfo id="horizontal.6" depart="160.00" departLane="2fi_0" departPos="5.10" departSpeed="0.00" departDelay="0.00" arrival="398.00" arrivalLane="2fi_0" arrivalPos="248.50" arrivalSpeed="11.09" duration="238.00" routeLength="2257.40" waitingTime="22.00" waitingCount="1" stopTime="0.00" timeLoss="43.67" rerouteNo="0" devices="tripinfo_horizontal.6" vType="DEFAULT_VEHTYPE" speedFactor="1.00" vaporized=""/>
    <tripinfo id="horizontal.7" depart="170.00" departLane="2fi_0" departPos="5.10" departSpeed="0.00" departDelay="0.00" arrival="401.00" arrivalLane="2fi_0" arrivalPos="248.50" arrivalSpeed="9.82" duration="231.00" routeLength="2257.40" waitingTime="14.00" waitingCount="1" stopTime="0.00" timeLoss="36.04" rerouteNo="0" devices="tripinfo_horizontal.7" vType="DEFAULT_VEHTYPE" speedFactor="1.00" vaporized=""/>
    <tripinfo id="horizontal.8" depart="180.00" departLane="2fi_0" departPos="5.10" departSpeed="0.00" departDelay="0.00" arrival="403.00" arrivalLane="2fi_0" arrivalPos="248.50" arrivalSpeed="9.92" duration="223.00" routeLength="2257.40" waitingTime="4.00" waitingCount="1" stopTime="0.00" timeLoss="28.06" rerouteNo="0" devices="tripinfo_horizontal.8" vType="DEFAULT_VEHTYPE" speedFactor="1.00" vaporized=""/>
    <tripinfo id="horizontal.9" depart="190.00" departLane="2fi_0" departPos="5.10" departSpeed="0.00" departDelay="0.00" arrival="405.00" arrivalLane="2fi_0" arrivalPos="248.50" arrivalSpeed="10.19" duration="215.00" routeLength="2257.40" waitingTime="0.00" waitingCount="0" stopTime="0.00" timeLoss="20.08" rerouteNo="0" devices="tripinfo_horizontal.9" vType="DEFAULT_VEHTYPE" speedFactor="1.00" vaporized=""/>
    <tripinfo id="horizontal.10" depart="200.00" departLane="2fi_0" departPos="5.10" departSpeed="0.00" departDelay="0.00" arrival="410.00" arrivalLane="2fi_0" arrivalPos="248.50" arrivalSpeed="9.97" duration="210.00" routeLength="2257.40" waitingTime="0.00" waitingCount="0" stopTime="0.00" timeLoss="15.92" rerouteNo="0" devices="tripinfo_horizontal.10" vType="DEFAULT_VEHTYPE" speedFactor="1.00" vaporized=""/>
    <tripinfo id="horizontal.11" depart="210.00" departLane="2fi_0" departPos="5.10" departSpeed="0.00" departDelay="0.00" arrival="420.00" arrivalLane="2fi_0" arrivalPos="248.50" arrivalSpeed="10.80" duration="210.00" routeLength="2257.40" waitingTime="0.00" waitingCount="0" stopTime="0.00" timeLoss="15.17" rerouteNo="0" devices="tripinfo_horizontal.11" vType="DEFAULT_VEHTYPE" speedFactor="1.00" vaporized=""/>
    <tripinfo id="vertical.7" depart="173.00" departLane="3fi_0" departPos="5.10" departSpeed="0.00" departDelay="3.00" arrival="438.00" arrivalLane="3fi_0" arrivalPos="248.50" arrivalSpeed="10.93" duration="265.00" routeLength="2257.40" waitingTime="50.00" waitingCount="1" stopTime="0.00" timeLoss="70.78" rerouteNo="0" devices="tripinfo_vertical.7" vType="DEFAULT_VEHTYPE" speedFactor="1.00" vaporized=""/>
    <tripinfo id="vertical.8" depart="183.00" departLane="3fi_0" departPos="5.10" departSpeed="0.00" departDelay="3.00" arrival="440.00" arrivalLane="3fi_0" arrivalPos="248.50" arrivalSpeed="10.90" duration="257.00" routeLength="2257.40" waitingTime="41.00" waitingCount="1" stopTime="0.00" timeLoss="62.64" rerouteNo="0" devices="tripinfo_vertical.8" vType="DEFAULT_VEHTYPE" speedFactor="1.00" vaporized=""/>
    <tripinfo id="vertical.9" depart="193.00" departLane="3fi_0" departPos="5.10" departSpeed="0.00" departDelay="3.00" arrival="442.00" arrivalLane="3fi_0" arrivalPos="248.50" arrivalSpeed="10.02" duration="249.00" routeLength="2257.40" waitingTime="33.00" waitingCount="1" stopTime="0.00" timeLoss="54.56" rerouteNo="0" devices="tripinfo_vertical.9" vType="DEFAULT_VEHTYPE" speedFactor="1.00" vaporized=""/>
    <tripinfo id="vertical.10" depart="203.00" departLane="3fi_0" departPos="5.10" departSpeed="0.00" departDelay="3.00" arrival="444.00" arrivalLane="3fi_0" arrivalPos="248.50" arrivalSpeed="10.87" duration="241.00" routeLength="2257.40" waitingTime="22.00" waitingCount="1" stopTime="0.00" timeLoss="46.36" rerouteNo="0" devices="tripinfo_vertical.10" vType="DEFAULT_VEHTYPE" speedFactor="1.00" vaporized=""/>
    <tripinfo id="vertical.11" depart="213.00" departLane="3fi_0" departPos="5.10" departSpeed="0.00" departDelay="3.00" arrival="446.00" arrivalLane="3fi_0" arrivalPos="248.50" arrivalSpeed="10.81" duration="233.00" routeLength="2257.40" waitingTime="15.00" waitingCount="1" stopTime="0.00" timeLoss="38.49" rerouteNo="0" devices="tripinfo_vertical.11" vType="DEFAULT_VEHTYPE" speedFactor="1.00" vaporized=""/>
    <tripinfo id="vertical.12" depart="223.00" departLane="3fi_0" departPos="5.10" departSpeed="0.00" departDelay="3.00" arrival="448.00" arrivalLane="3fi_0" arrivalPos="248.50" arrivalSpeed="10.58" duration="225.00" routeLength="2257.40" waitingTime="7.00" waitingCount="1" stopTime="0.00" timeLoss="30.32" rerouteNo="0" devices="tripinfo_vertical.12" vType="DEFAULT_VEHTYPE" speedFactor="1.00" vaporized=""/>
    <tripinfo id="vertical.13" depart="233.00" departLane="3fi_0" departPos="5.10" departSpeed="0.00" departDelay="3.00" arrival="450.00" arrivalLane="3fi_0" arrivalPos="248.50" arrivalSpeed="10.01" duration="217.00" routeLength="2257.40" waitingTime="0.00" waitingCount="0" stopTime="0.00" timeLoss="22.58" rerouteNo="0" devices="tripinfo_vertical.13" vType="DEFAULT_VEHTYPE" speedFactor="1.00" vaporized=""/>
    <tripinfo id="vertical.14" depart="243.00" departLane="3fi_0" departPos="5.10" departSpeed="0.00" departDelay="3.00" arrival="453.00" arrivalLane="3fi_0" arrivalPos="248.50" arrivalSpeed="10.51" duration="210.00" routeLength="2257.40" waitingTime="0.00" waitingCount="0" stopTime="0.00" timeLoss="15.40" rerouteNo="0" devices="tripinfo_vertical.14" vType="DEFAULT_VEHTYPE" speedFactor="1.00" vaporized=""/>
    <tripinfo id="vertical.15" depart="253.00" departLane="3fi_0" departPos="5.10" departSpeed="0.00" departDelay="3.00" arrival="464.00" arrivalLane="3fi_0" arrivalPos="248.50" arrivalSpeed="10.59" duration="211.00" routeLength="2257.40" waitingTime="0.00" waitingCount="0" stopTime="0.00" timeLoss="16.62" rerouteNo="0" devices="tripinfo_vertical.15" vType="DEFAULT_VEHTYPE" speedFactor="1.00" vaporized=""/>
    <tripinfo id="horizontal.12" depart="220.00" departLane="2fi_0" departPos="5.10" departSpeed="0.00" departDelay="0.00" arrival="482.00" arrivalLane="2fi_0" arrivalPos="248.50" arrivalSpeed="9.96" duration="262.00" routeLength="2257.40" waitingTime="48.00" waitingCount="1" stopTime="0.00" timeLoss="67.97" rerouteNo="0" devices="tripinfo_horizontal.12" vType="DEFAULT_VEHTYPE" speedFactor="1.00" vaporized=""/>
    <tripinfo id="horizontal.13" depart="240.00" departLane="2fi_0" departPos="5.10" departSpeed="0.00" departDelay="10.00" arrival="484.00" arrivalLane="2fi_0" arrivalPos="248.50" arrivalSpeed="11.01" duration="244.00" routeLength="2257.40" waitingTime="29.00" waitingCount="1" stopTime="0.00" timeLoss="49.78" rerouteNo="0" devices="tripinfo_horizontal.13" vType="DEFAULT_VEHTYPE" speedFactor="1.00" vaporized=""/>
    <tripinfo id="horizontal.14" depart="245.00" departLane="2fi_0" departPos="5.10" departSpeed="0.00" departDelay="5.00" arrival="486.00" arrivalLane="2fi_0" arrivalPos="248.50" arrivalSpeed="10.80" duration="241.00" routeLength="2257.40" waitingTime="25.00" waitingCount="1" stopTime="0.00" timeLoss="46.73" rerouteNo="0" devices="tripinfo_horizontal.14" vType="DEFAULT_VEHTYPE" speedFactor="1.00" vaporized=""/>
    <tripinfo id="horizontal.15" depart="254.00" departLane="2fi_0" departPos="5.10" departSpeed="0.00" departDelay="4.00" arrival="488.00" arrivalLane="2fi_0" arrivalPos="248.50" arrivalSpeed="11.09" duration="234.00" routeLength="2257.40" waitingTime="18.00" waitingCount="1" stopTime="0.00" timeLoss="39.59" rerouteNo="0" devices="tripinfo_horizontal.15" vType="DEFAULT_VEHTYPE" speedFactor="1.00" vaporized=""/>
    <tripinfo id="horizontal.16" depart="260.00" departLane="2fi_0" departPos="5.10" departSpeed="0.00" departDelay="0.00" arrival="490.00" arrivalLane="2fi_0" arrivalPos="248.50" arrivalSpeed="9.83" duration="230.00" routeLength="2257.40" waitingTime="13.00" waitingCount="1" stopTime="0.00" timeLoss="35.90" rerouteNo="0" devices="tripinfo_horizontal.16" vType="DEFAULT_VEHTYPE" speedFactor="1.00" vaporized=""/>
    <tripinfo id="horizontal.17" depart="270.00" departLane="2fi_0" departPos="5.10" departSpeed="0.00" departDelay="0.00" arrival="492.00" arrivalLane="2fi_0" arrivalPos="248.50" arrivalSpeed="10.73" duration="222.00" routeLength="2257.40" waitingTime="6.00" waitingCount="1" stopTime="0.00" timeLoss="27.65" rerouteNo="0" devices="tripinfo_horizontal.17" vType="DEFAULT_VEHTYPE" speedFactor="1.00" vaporized=""/>
    <tripinfo id="horizontal.18" depart="280.00" departLane="2fi_0" departPos="5.10" departSpeed="0.00" departDelay="0.00" arrival="494.00" arrivalLane="2fi_0" arrivalPos="248.50" arrivalSpeed="10.15" duration="214.00" routeLength="2257.40" waitingTime="0.00" waitingCount="0" stopTime="0.00" timeLoss="19.92" rerouteNo="0" devices="tripinfo_horizontal.18" vType="DEFAULT_VEHTYPE" speedFactor="1.00" vaporized=""/>
    <tripinfo id="horizontal.19" depart="290.00" departLane="2fi_0" departPos="5.10" departSpeed="0.00" departDelay="0.00" arrival="500.00" arrivalLane="2fi_0" arrivalPos="248.50" arrivalSpeed="10.53" duration="210.00" routeLength="2257.40" waitingTime="0.00" waitingCount="0" stopTime="0.00" timeLoss="15.58" rerouteNo="0" devices="tripinfo_horizontal.19" vType="DEFAULT_VEHTYPE" speedFactor="1.00" vaporized=""/>
    <tripinfo id="horizontal.20" depart="300.00" departLane="2fi_0" departPos="5.10" departSpeed="0.00" departDelay="0.00" arrival="509.00" arrivalLane="2fi_0" arrivalPos="248.50" arrivalSpeed="10.94" duration="209.00" routeLength="2257.40" waitingTime="0.00" waitingCount="0" stopTime="0.00" timeLoss="14.80" rerouteNo="0" devices="tripinfo_horizontal.20" vType="DEFAULT_VEHTYPE" speedFactor="1.00" vaporized=""/>
    <tripinfo id="vertical.16" depart="263.00" departLane="3fi_0" departPos="5.10" departSpeed="0.00" departDelay="3.00" arrival="526.00" arrivalLane="3fi_0" arrivalPos="248.50" arrivalSpeed="10.78" duration="263.00" routeLength="2257.40" waitingTime="50.00" waitingCount="1" stopTime="0.00" timeLoss="68.13" rerouteNo="0" devices="tripinfo_vertical.16" vType="DEFAULT_VEHTYPE" speedFactor="1.00" vaporized=""/>
    <tripinfo id="vertical.17" depart="273.00" departLane="3fi_0" departPos="5.10" departSpeed="0.00" departDelay="3.00" arrival="528.00" arrivalLane="3fi_0" arrivalPos="248.50" arrivalSpeed="10.10" duration="255.00" routeLength="2257.40" waitingTime="41.00" waitingCount="1" stopTime="0.00" timeLoss="60.55" rerouteNo="0" devices="tripinfo_vertical.17" vType="DEFAULT_VEHTYPE" speedFactor="1.00" vaporized=""/>
    <tripinfo id="vertical.18" depart="283.00" departLane="3fi_0" departPos="5.10" departSpeed="0.00" departDelay="3.00" arrival="531.00" arrivalLane="3fi_0" arrivalPos="248.50" arrivalSpeed="10.22" duration="248.00" routeLength="2257.40" waitingTime="33.00" waitingCount="1" stopTime="0.00" timeLoss="53.76" rerouteNo="0" devices="tripinfo_vertical.18" vType="DEFAULT_VEHTYPE" speedFactor="1.00" vaporized=""/>
    <tripinfo id="vertical.19" depart="293.00" departLane="3fi_0" departPos="5.10" departSpeed="0.00" departDelay="3.00" arrival="534.00" arrivalLane="3fi_0" arrivalPos="248.50" arrivalSpeed="10.95" duration="241.00" routeLength="2257.40" waitingTime="25.00" waitingCount="1" stopTime="0.00" timeLoss="46.18" rerouteNo="0" devices="tripinfo_vertical.19" vType="DEFAULT_VEHTYPE" speedFactor="1.00" vaporized=""/>
    <tripinfo id="vertical.20" depart="303.00" departLane="3fi_0" departPos="5.10" departSpeed="0.00" departDelay="3.00" arrival="536.00" arrivalLane="3fi_0" arrivalPos="248.50" arrivalSpeed="10.70" duration="233.00" routeLength="2257.40" waitingTime="16.00" waitingCount="1" stopTime="0.00" timeLoss="38.37" rerouteNo="0" devices="tripinfo_vertical.20" vType="DEFAULT_VEHTYPE" speedFactor="1.00" vaporized=""/>
    <tripinfo id="vertical.21" depart="313.00" departLane="3fi_0" departPos="5.10" departSpeed="0.00" departDelay="3.00" arrival="538.00" arrivalLane="3fi_0" arrivalPos="248.50" arrivalSpeed="10.68" duration="225.00" routeLength="2257.40" waitingTime="7.00" waitingCount="1" stopTime="0.00" timeLoss="30.55" rerouteNo="0" devices="tripinfo_vertical.21" vType="DEFAULT_VEHTYPE" speedFactor="1.00" vaporized=""/>
    <tripinfo id="vertical.22" depart="333.00" departLane="3fi_0" departPos="5.10" departSpeed="0.00" departDelay="13.00" arrival="543.00" arrivalLane="3fi_0" arrivalPos="248.50" arrivalSpeed="9.94" duration="210.00" routeLength="2257.40" waitingTime="0.00" waitingCount="0" stopTime="0.00" timeLoss="15.52" rerouteNo="0" devices="tripinfo_vertical.22" vType="DEFAULT_VEHTYPE" speedFactor="1.00" vaporized=""/>
    <tripinfo id="vertical.23" depart="343.00" departLane="3fi_0" departPos="5.10" departSpeed="0.00" departDelay="13.00" arrival="552.00" arrivalLane="3fi_0" arrivalPos="248.50" arrivalSpeed="10.07" duration="209.00" routeLength="2257.40" waitingTime="0.00" waitingCount="0" stopTime="0.00" timeLoss="14.40" rerouteNo="0" devices="tripinfo_vertical.23" vType="DEFAULT_VEHTYPE" speedFactor="1.00" vaporized=""/>
    <tripinfo id="horizontal.21" depart="310.00" departLane="2fi_0" departPos="5.10" departSpeed="0.00" departDelay="0.00" arrival="572.00" arrivalLane="2fi_0" arrivalPos="248.50" arrivalSpeed="10.08" duration="262.00" routeLength="2257.40" waitingTime="47.00" waitingCount="1" stopTime="0.00" timeLoss="67.62" rerouteNo="0" devices="tripinfo_horizontal.21" vType="DEFAULT_VEHTYPE" speedFactor="1.00" vaporized=""/>
    <tripinfo id="horizontal.22" depart="336.00" departLane="2fi_0" departPos="5.10" departSpeed="0.00" departDelay="16.00" arrival="574.00" arrivalLane="2fi_0" arrivalPos="248.50" arrivalSpeed="10.08" duration="238.00" routeLength="2257.40" waitingTime="23.00" waitingCount="1" stopTime="0.00" timeLoss="43.70" rerouteNo="0" devices="tripinfo_horizontal.22" vType="DEFAULT_VEHTYPE" speedFactor="1.00" vaporized=""/>
    <tripinfo id="horizontal.23" depart="344.00" departLane="2fi_0" departPos="5.10" departSpeed="0.00" departDelay="14.00" arrival="577.00" arrivalLane="2fi_0" arrivalPos="248.50" arrivalSpeed="9.91" duration="233.00" routeLength="2257.40" waitingTime="17.00" waitingCount="1" stopTime="0.00" timeLoss="38.59" rerouteNo="0" devices="tripinfo_horizontal.23" vType="DEFAULT_VEHTYPE" speedFactor="1.00" vaporized=""/>
    <tripinfo id="horizontal.24" depart="347.00" departLane="2fi_0" departPos="5.10" departSpeed="0.00" departDelay="7.00" arrival="579.00" arrivalLane="2fi_0" arrivalPos="248.50" arrivalSpeed="10.18" duration="232.00" routeLength="2257.40" waitingTime="14.00" waitingCount="1" stopTime="0.00" timeLoss="37.70" rerouteNo="0" devices="tripinfo_horizontal.24" vType="DEFAULT_VEHTYPE" speedFactor="1.00" vaporized=""/>
    <tripinfo id="horizontal.25" depart="356.00" departLane="2fi_0" departPos="5.10" departSpeed="0.00" departDelay="6.00" arrival="581.00" arrivalLane="2fi_0" arrivalPos="248.50" arrivalSpeed="11.00" duration="225.00" routeLength="2257.40" waitingTime="8.00" waitingCount="1" stopTime="0.00" timeLoss="30.38" rerouteNo="0" devices="tripinfo_horizontal.25" vType="DEFAULT_VEHTYPE" speedFactor="1.00" vaporized=""/>
    <tripinfo id="horizontal.26" depart="360.00" departLane="2fi_0" departPos="5.10" departSpeed="0.00" departDelay="0.00" arrival="583.00" arrivalLane="2fi_0" arrivalPos="248.50" arrivalSpeed="10.45" duration="223.00" routeLength="2257.40" waitingTime="6.00" waitingCount="1" stopTime="0.00" timeLoss="28.36" rerouteNo="0" devices="tripinfo_horizontal.26" vType="DEFAULT_VEHTYPE" speedFactor="1.00" vaporized=""/>
    <tripinfo id="horizontal.27" depart="382.00" departLane="2fi_0" departPos="5.10" departSpeed="0.00" departDelay="12.00" arrival="592.00" arrivalLane="2fi_0" arrivalPos="248.50" arrivalSpeed="10.83" duration="210.00" routeLength="2257.40" waitingTime="0.00" waitingCount="0" stopTime="0.00" timeLoss="15.34" rerouteNo="0" devices="tripinfo_horizontal.27" vType="DEFAULT_VEHTYPE" speedFactor="1.00" vaporized=""/>
    <tripinfo id="horizontal.28" depart="387.00" departLane="2fi_0" departPos="5.10" departSpeed="0.00" departDelay="7.00" arrival="598.00" arrivalLane="2fi_0" arrivalPos="248.50" arrivalSpeed="10.98" duration="211.00" routeLength="2257.40" waitingTime="0.00" waitingCount="0" stopTime="0.00" timeLoss="16.26" rerouteNo="0" devices="tripinfo_horizontal.28" vType="DEFAULT_VEHTYPE" speedFactor="1.00" vaporized=""/>
    <tripinfo id="horizontal.29" depart="390.00" departLane="2fi_0" departPos="5.10" departSpeed="0.00" departDelay="0.00" arrival="600.00" arrivalLane="2fi_0" arrivalPos="248.50" arrivalSpeed="10.52" duration="210.00" routeLength="2257.40" waitingTime="0.00" waitingCount="0" stopTime="0.00" timeLoss="15.36" rerouteNo="0" devices="tripinfo_horizontal.29" vType="DEFAULT_VEHTYPE" speedFactor="1.00" vaporized=""/>
    <tripinfo id="vertical.24" depart="352.00" departLane="3fi_0" departPos="5.10" departSpeed="0.00" departDelay="12.00" arrival="617.00" arrivalLane="3fi_0" arrivalPos="248.50" arrivalSpeed="9.92" duration="265.00" routeLength="2257.40" waitingTime="49.00" waitingCount="1" stopTime="0.00" timeLoss="70.10" rerouteNo="0" devices="tripinfo_vertical.24" vType="DEFAULT_VEHTYPE" speedFactor="1.00" vaporized=""/>
    <tripinfo id="vertical.25" depart="358.00" departLane="3fi_0" departPos="5.10" departSpeed="0.00" departDelay="8.00" arrival="619.00" arrivalLane="3fi_0" arrivalPos="248.50" arrivalSpeed="10.54" duration="261.00" routeLength="2257.40" waitingTime="46.00" waitingCount="1" stopTime="0.00" timeLoss="66.17" rerouteNo="0" devices="tripinfo_vertical.25" vType="DEFAULT_VEHTYPE" speedFactor="1.00" vaporized=""/>
    <tripinfo id="vertical.26" depart="364.00" departLane="3fi_0" departPos="5.10" departSpeed="0.00" departDelay="4.00" arrival="621.00" arrivalLane="3fi_0" arrivalPos="248.50" arrivalSpeed="11.06" duration="257.00" routeLength="2257.40" waitingTime="42.00" waitingCount="1" stopTime="0.00" timeLoss="62.23" rerouteNo="0" devices="tripinfo_vertical.26" vType="DEFAULT_VEHTYPE" speedFactor="1.00" vaporized=""/>
    <tripinfo id="vertical.27" depart="373.00" departLane="3fi_0" departPos="5.10" departSpeed="0.00" departDelay="3.00" arrival="623.00" arrivalLane="3fi_0" arrivalPos="248.50" arrivalSpeed="10.96" duration="250.00" routeLength="2257.40" waitingTime="35.00" waitingCount="1" stopTime="0.00" timeLoss="55.70" rerouteNo="0" devices="tripinfo_vertical.27" vType="DEFAULT_VEHTYPE" speedFactor="1.00" vaporized=""/>
    <tripinfo id="vertical.28" depart="383.00" departLane="3fi_0" departPos="5.10" departSpeed="0.00" departDelay="3.00" arrival="625.00" arrivalLane="3fi_0" arrivalPos="248.50" arrivalSpeed="10.10" duration="242.00" routeLength="2257.40" waitingTime="26.00" waitingCount="1" stopTime="0.00" timeLoss="47.78" rerouteNo="0" devices="tripinfo_vertical.28" vType="DEFAULT_VEHTYPE" speedFactor="1.00" vaporized=""/>
    <tripinfo id="vertical.29" depart="393.00" departLane="3fi_0" departPos="5.10" departSpeed="0.00" departDelay="3.00" arrival="628.00" arrivalLane="3fi_0" arrivalPos="248.50" arrivalSpeed="11.01" duration="235.00" routeLength="2257.40" waitingTime="17.00" waitingCount="1" stopTime="0.00" timeLoss="39.91" rerouteNo="0" devices="tripinfo_vertical.29" vType="DEFAULT_VEHTYPE" speedFactor="1.00" vaporized=""/>
    <tripinfo id="vertical.30" depart="403.00" departLane="3fi_0" departPos="5.10" departSpeed="0.00" departDelay="3.00" arrival="630.00" arrivalLane="3fi_0" arrivalPos="248.50" arrivalSpeed="10.72" duration="227.00" routeLength="2257.40" waitingTime="8.00" waitingCount="1" stopTime="0.00" timeLoss="32.41" rerouteNo="0" devices="tripinfo_vertical.30" vType="DEFAULT_VEHTYPE" speedFactor="1.00" vaporized=""/>
    <tripinfo id="always_left.0" depart="100.00" departLane="1fi_0" departPos="5.10" departSpeed="0.00" departDelay="0.00" arrival="633.00" arrivalLane="1fi_0" arrivalPos="248.50" arrivalSpeed="11.00" duration="533.00" routeLength="4263.32" waitingTime="113.00" waitingCount="6" stopTime="0.00" timeLoss="166.99" rerouteNo="0" devices="tripinfo_always_left.0" vType="DEFAULT_VEHTYPE" speedFactor="1.00" vaporized=""/>
    <tripinfo id="always_left.1" depart="110.00" departLane="1fi_0" departPos="5.10" departSpeed="0.00" departDelay="0.00" arrival="635.00" arrivalLane="1fi_0" arrivalPos="248.50" arrivalSpeed="10.85" duration="525.00" routeLength="4263.32" waitingTime="95.00" waitingCount="7" stopTime="0.00" timeLoss="159.05" rerouteNo="0" devices="tripinfo_always_left.1" vType="DEFAULT_VEHTYPE" speedFactor="1.00" vaporized=""/>
    <tripinfo id="vertical.31" depart="430.00" departLane="3fi_0" departPos="5.10" departSpeed="0.00" departDelay="20.00" arrival="639.00" arrivalLane="3fi_0" arrivalPos="248.50" arrivalSpeed="10.39" duration="209.00" routeLength="2257.40" waitingTime="0.00" waitingCount="0" stopTime="0.00" timeLoss="14.07" rerouteNo="0" devices="tripinfo_vertical.31" vType="DEFAULT_VEHTYPE" speedFactor="1.00" vaporized=""/>
    <tripinfo id="always_left.2" depart="120.00" departLane="1fi_0" departPos="5.10" departSpeed="0.00" departDelay="0.00" arrival="646.00" arrivalLane="1fi_0" arrivalPos="248.50" arrivalSpeed="10.42" duration="526.00" routeLength="4263.32" waitingTime="82.00" waitingCount="9" stopTime="0.00" timeLoss="160.21" rerouteNo="0" devices="tripinfo_always_left.2" vType="DEFAULT_VEHTYPE" speedFactor="1.00" vaporized=""/>
    <tripinfo id="always_left.3" depart="130.00" departLane="1fi_0" departPos="5.10" departSpeed="0.00" departDelay="0.00" arrival="648.00" arrivalLane="1fi_0" arrivalPos="248.50" arrivalSpeed="10.96" duration="518.00" routeLength="4263.32" waitingTime="68.00" waitingCount="9" stopTime="0.00" timeLoss="152.33" rerouteNo="0" devices="tripinfo_always_left.3" vType="DEFAULT_VEHTYPE" speedFactor="1.00" vaporized=""/>
    <tripinfo id="always_right.0" depart="100.00" departLane="3fi_0" departPos="5.10" departSpeed="0.00" departDelay="0.00" arrival="659.00" arrivalLane="3fi_0" arrivalPos="248.50" arrivalSpeed="10.61" duration="559.00" routeLength="4223.00" waitingTime="150.00" waitingCount="4" stopTime="0.00" timeLoss="196.75" rerouteNo="0" devices="tripinfo_always_right.0" vType="DEFAULT_VEHTYPE" speedFactor="1.00" vaporized=""/>
    <tripinfo id="always_right.1" depart="110.00" departLane="3fi_0" departPos="5.10" departSpeed="0.00" departDelay="0.00" arrival="661.00" arrivalLane="3fi_0" arrivalPos="248.50" arrivalSpeed="10.56" duration="551.00" routeLength="4223.00" waitingTime="139.00" waitingCount="4" stopTime="0.00" timeLoss="188.62" rerouteNo="0" devices="tripinfo_always_right.1" vType="DEFAULT_VEHTYPE" speedFactor="1.00" vaporized=""/>
    <tripinfo id="horizontal.30" depart="400.00" departLane="2fi_0" departPos="5.10" departSpeed="0.00" departDelay="0.00" arrival="662.00" arrivalLane="2fi_0" arrivalPos="248.50" arrivalSpeed="10.43" duration="262.00" routeLength="2257.40" waitingTime="46.00" waitingCount="1" stopTime="0.00" timeLoss="67.74" rerouteNo="0" devices="tripinfo_horizontal.30" vType="DEFAULT_VEHTYPE" speedFactor="1.00" vaporized=""/>